/*--------------------------------*- C++ -*----------------------------------*\
  =========                 |
  \\      /  F ield         | OpenFOAM: The Open Source CFD Toolbox
   \\    /   O peration     | Website:  https://openfoam.org
    \\  /    A nd           | Version:  12
     \\/     M anipulation  |
\*---------------------------------------------------------------------------*/
FoamFile
{
    format      ascii;
    class       volScalarField;
    location    "80";
    object      k;
}
// * * * * * * * * * * * * * * * * * * * * * * * * * * * * * * * * * * * * * //

dimensions      [0 2 -2 0 0 0 0];

internalField   nonuniform List<scalar> 
16227
(
0.00914646
0.00914648
0.00914647
0.00914651
0.0091465
0.00914654
0.00914653
0.00914651
0.00914651
0.00914653
0.00914657
0.00914659
0.00914665
0.00914665
0.00914665
0.00914665
0.00914665
0.00914665
0.00914665
0.00914665
0.00914665
0.00914665
0.00914665
0.00914665
0.00914665
0.00914665
0.00914665
0.00914666
0.00914667
0.00914664
0.00914665
0.00914665
0.00914665
0.00914665
0.00914665
0.00914665
0.00914665
0.00914665
0.00914665
0.00914665
0.00914665
0.00914665
0.00914665
0.00914665
0.00914665
0.00914665
0.00914665
0.00914663
0.00914662
0.00914662
0.00914662
0.00914661
0.00914654
0.00914654
0.00914649
0.00914649
0.00914651
0.00914649
0.00914647
0.00914646
0.00848122
0.00848124
0.00848123
0.00848126
0.00848127
0.0084813
0.00848129
0.00848127
0.00848128
0.00848129
0.00848134
0.00848136
0.00848151
0.00848156
0.00848158
0.00848158
0.00848158
0.00848158
0.00848158
0.00848158
0.00848159
0.0084816
0.0084816
0.0084816
0.0084816
0.00848161
0.0084816
0.0084816
0.00848158
0.00848153
0.00848159
0.00848161
0.00848161
0.00848161
0.00848161
0.0084816
0.00848158
0.00848159
0.00848159
0.00848159
0.00848159
0.00848159
0.00848159
0.00848157
0.00848157
0.00848156
0.00848156
0.00848156
0.00848156
0.00848155
0.00848152
0.00848147
0.00848135
0.00848133
0.0084813
0.00848128
0.00848131
0.00848123
0.00848125
0.00848122
0.00790073
0.00790075
0.00790075
0.00790077
0.00790076
0.00790085
0.00790081
0.00790079
0.0079008
0.00790081
0.00790085
0.00790087
0.00790112
0.00790118
0.00790119
0.0079012
0.0079012
0.0079012
0.00790122
0.00790117
0.0079012
0.00790122
0.00790121
0.00790121
0.00790121
0.00790122
0.00790122
0.00790123
0.00790122
0.00790115
0.00790121
0.00790123
0.00790123
0.00790124
0.00790125
0.00790125
0.00790125
0.00790124
0.00790123
0.00790124
0.00790124
0.00790124
0.00790123
0.00790122
0.00790122
0.00790123
0.00790121
0.00790122
0.00790121
0.00790118
0.00790114
0.00790094
0.00790087
0.00790085
0.00790083
0.00790083
0.00790086
0.00790076
0.00790078
0.00790075
0.00739019
0.00739021
0.00739022
0.00739023
0.00739023
0.0073903
0.0073903
0.00739026
0.00739027
0.00739026
0.00739031
0.00739036
0.00739063
0.0073907
0.00739071
0.00739073
0.00739073
0.00739075
0.00739068
0.00739055
0.00739067
0.00739071
0.00739071
0.00739072
0.00739073
0.00739073
0.00739073
0.00739073
0.00739072
0.00739064
0.00739072
0.00739075
0.00739076
0.00739077
0.00739077
0.00739079
0.0073908
0.0073908
0.00739081
0.00739081
0.00739082
0.00739081
0.00739081
0.00739082
0.00739081
0.0073908
0.0073908
0.0073908
0.0073908
0.00739077
0.00739064
0.00739045
0.00739034
0.00739036
0.00739036
0.00739038
0.00739035
0.00739027
0.00739027
0.00739025
0.00693801
0.00693803
0.00693803
0.00693805
0.00693805
0.0069381
0.00693813
0.00693806
0.00693807
0.00693807
0.00693811
0.00693816
0.00693841
0.00693853
0.00693855
0.00693854
0.00693855
0.00693852
0.00693831
0.00693824
0.00693844
0.00693851
0.00693851
0.00693851
0.0069385
0.00693851
0.00693851
0.00693852
0.00693851
0.00693843
0.00693853
0.00693857
0.0069386
0.00693861
0.00693862
0.00693864
0.00693867
0.00693869
0.0069387
0.00693871
0.00693873
0.00693874
0.00693874
0.00693874
0.00693874
0.00693874
0.00693874
0.00693874
0.00693873
0.00693864
0.00693839
0.00693828
0.0069382
0.00693823
0.00693824
0.00693829
0.00693822
0.00693814
0.00693814
0.00693813
0.00653497
0.00653499
0.00653498
0.006535
0.00653499
0.00653504
0.00653508
0.00653502
0.00653499
0.00653499
0.00653499
0.00653502
0.00653513
0.00653541
0.00653547
0.00653548
0.00653547
0.00653537
0.00653513
0.00653509
0.00653531
0.00653538
0.00653537
0.00653536
0.00653537
0.00653538
0.00653539
0.00653539
0.00653538
0.00653531
0.00653542
0.00653547
0.00653551
0.00653555
0.00653558
0.00653562
0.00653565
0.00653568
0.00653571
0.00653573
0.00653575
0.00653577
0.00653578
0.0065358
0.0065358
0.00653581
0.00653581
0.00653581
0.0065358
0.00653565
0.0065354
0.00653528
0.00653524
0.00653528
0.00653532
0.0065353
0.00653524
0.00653518
0.00653518
0.00653516
0.00617368
0.00617369
0.00617368
0.00617369
0.00617369
0.00617372
0.00617375
0.00617373
0.00617368
0.00617366
0.00617364
0.00617363
0.00617372
0.00617397
0.0061741
0.00617411
0.00617407
0.00617378
0.00617365
0.00617365
0.00617388
0.00617393
0.00617392
0.00617391
0.00617392
0.00617392
0.00617393
0.00617395
0.00617395
0.00617387
0.00617401
0.00617408
0.00617413
0.00617418
0.00617424
0.00617429
0.00617434
0.0061744
0.00617444
0.00617449
0.00617452
0.00617456
0.00617458
0.0061746
0.00617462
0.00617463
0.00617463
0.00617463
0.00617455
0.00617428
0.00617414
0.00617404
0.00617404
0.0061741
0.0061741
0.00617409
0.00617403
0.00617397
0.00617398
0.00617396
0.00584813
0.00584813
0.00584812
0.00584813
0.00584812
0.00584814
0.00584817
0.00584815
0.00584809
0.00584804
0.00584801
0.00584795
0.00584798
0.0058481
0.00584838
0.00584845
0.00584837
0.00584802
0.00584791
0.00584791
0.00584814
0.00584818
0.00584816
0.00584815
0.00584814
0.00584815
0.00584816
0.00584818
0.00584819
0.00584813
0.00584828
0.00584838
0.00584846
0.00584853
0.00584861
0.00584869
0.00584876
0.00584884
0.00584891
0.00584897
0.00584903
0.00584907
0.00584911
0.00584915
0.00584918
0.00584918
0.0058492
0.00584919
0.00584905
0.00584878
0.00584864
0.00584859
0.00584863
0.00584865
0.00584864
0.00584863
0.00584858
0.00584852
0.00584853
0.00584851
0.00555339
0.00555339
0.00555339
0.00555338
0.00555337
0.00555337
0.00555339
0.00555336
0.00555333
0.00555326
0.00555319
0.00555311
0.0055531
0.00555318
0.0055535
0.00555357
0.0055534
0.00555307
0.00555297
0.00555294
0.00555316
0.0055532
0.00555316
0.00555314
0.00555313
0.00555313
0.00555315
0.00555318
0.0055532
0.00555315
0.00555332
0.00555344
0.00555355
0.00555365
0.00555376
0.00555387
0.00555397
0.00555408
0.00555417
0.00555426
0.00555434
0.00555441
0.00555446
0.0055545
0.00555454
0.00555458
0.00555458
0.0055545
0.00555422
0.00555408
0.00555399
0.00555401
0.00555401
0.00555403
0.00555402
0.005554
0.00555396
0.00555391
0.0055539
0.0055539
0.0052854
0.0052854
0.00528538
0.00528538
0.00528535
0.00528535
0.00528536
0.00528532
0.00528527
0.00528522
0.00528513
0.00528502
0.00528499
0.00528506
0.0052853
0.00528536
0.00528503
0.00528481
0.00528472
0.00528469
0.00528489
0.00528491
0.00528486
0.00528483
0.00528481
0.00528481
0.00528484
0.00528487
0.0052849
0.00528487
0.00528507
0.00528521
0.00528534
0.00528549
0.00528563
0.00528577
0.00528591
0.00528605
0.00528618
0.00528629
0.00528639
0.00528648
0.00528656
0.00528662
0.00528667
0.00528671
0.00528672
0.00528661
0.00528631
0.00528619
0.00528615
0.00528614
0.00528615
0.00528616
0.00528615
0.00528614
0.00528609
0.00528605
0.00528604
0.00528604
0.00504076
0.00504076
0.00504074
0.00504072
0.00504071
0.00504069
0.00504068
0.00504062
0.00504057
0.0050405
0.00504041
0.00504027
0.00504017
0.00504017
0.00504024
0.00504041
0.00504009
0.0050399
0.0050398
0.00503975
0.00503987
0.00503991
0.00503987
0.00503982
0.00503979
0.00503979
0.00503981
0.00503986
0.00503991
0.00503989
0.00504012
0.0050403
0.00504046
0.00504064
0.00504082
0.00504101
0.00504119
0.00504136
0.00504152
0.00504167
0.0050418
0.00504191
0.00504201
0.00504209
0.00504215
0.00504218
0.00504213
0.00504197
0.00504178
0.00504168
0.00504165
0.00504165
0.00504165
0.00504167
0.00504165
0.00504164
0.0050416
0.00504154
0.00504155
0.00504153
0.00481662
0.00481662
0.0048166
0.00481658
0.00481654
0.00481653
0.0048165
0.00481644
0.00481636
0.00481627
0.00481617
0.00481603
0.00481589
0.00481582
0.00481583
0.00481594
0.00481568
0.00481548
0.00481534
0.00481525
0.00481521
0.00481534
0.00481531
0.00481525
0.00481521
0.00481521
0.00481523
0.00481529
0.00481535
0.00481537
0.00481562
0.00481584
0.00481604
0.00481626
0.00481649
0.00481672
0.00481694
0.00481716
0.00481735
0.00481753
0.0048177
0.00481784
0.00481796
0.00481807
0.00481813
0.00481814
0.00481798
0.00481789
0.00481778
0.00481769
0.00481767
0.00481767
0.00481766
0.00481767
0.00481766
0.00481765
0.0048176
0.00481755
0.00481755
0.00481754
0.00461057
0.00461057
0.00461055
0.00461052
0.00461048
0.00461045
0.0046104
0.00461034
0.00461024
0.00461013
0.00461002
0.00460986
0.0046097
0.00460954
0.00460944
0.00460938
0.00460928
0.00460913
0.00460895
0.00460881
0.0046087
0.00460884
0.00460881
0.00460873
0.00460868
0.00460866
0.00460869
0.00460876
0.00460884
0.00460888
0.00460917
0.00460942
0.00460967
0.00460995
0.00461022
0.0046105
0.00461077
0.00461103
0.00461128
0.0046115
0.0046117
0.00461188
0.00461202
0.00461214
0.0046122
0.00461218
0.00461204
0.004612
0.00461188
0.0046118
0.00461178
0.00461178
0.00461177
0.00461177
0.00461176
0.00461174
0.0046117
0.00461165
0.00461165
0.00461164
0.00442057
0.00442057
0.00442054
0.0044205
0.00442046
0.00442041
0.00442035
0.00442027
0.00442016
0.00442004
0.00441989
0.00441971
0.00441953
0.00441935
0.00441916
0.00441904
0.00441896
0.00441878
0.00441858
0.0044184
0.00441825
0.00441836
0.00441829
0.00441819
0.00441813
0.0044181
0.00441813
0.00441821
0.00441831
0.00441838
0.0044187
0.004419
0.00441931
0.00441963
0.00441997
0.0044203
0.00442064
0.00442095
0.00442124
0.00442151
0.00442174
0.00442195
0.00442211
0.00442224
0.00442225
0.00442219
0.00442216
0.00442212
0.00442202
0.00442196
0.00442194
0.00442193
0.00442192
0.00442192
0.0044219
0.00442188
0.00442184
0.0044218
0.00442179
0.00442177
0.00424484
0.00424484
0.00424481
0.00424477
0.00424471
0.00424466
0.00424459
0.00424449
0.00424437
0.00424422
0.00424405
0.00424385
0.00424364
0.00424342
0.00424321
0.00424305
0.00424293
0.00424271
0.00424246
0.00424224
0.00424205
0.00424211
0.00424202
0.00424188
0.0042418
0.00424177
0.00424179
0.00424188
0.004242
0.0042421
0.00424247
0.00424282
0.00424319
0.00424357
0.00424397
0.00424437
0.00424477
0.00424514
0.00424549
0.0042458
0.00424607
0.00424631
0.0042465
0.0042466
0.00424653
0.00424655
0.00424655
0.00424653
0.00424646
0.0042464
0.00424639
0.00424637
0.00424636
0.00424635
0.00424632
0.0042463
0.00424625
0.00424622
0.0042462
0.00424618
0.00408189
0.00408188
0.00408185
0.00408181
0.00408174
0.00408168
0.0040816
0.00408147
0.00408134
0.00408117
0.00408098
0.00408075
0.00408052
0.00408027
0.00408002
0.00407983
0.00407965
0.00407939
0.00407909
0.00407882
0.00407859
0.00407854
0.00407845
0.0040783
0.00407818
0.00407814
0.00407816
0.00407826
0.0040784
0.00407854
0.00407895
0.00407936
0.0040798
0.00408025
0.00408073
0.0040812
0.00408166
0.00408211
0.00408251
0.00408287
0.00408318
0.00408345
0.00408366
0.00408373
0.0040837
0.00408372
0.00408374
0.00408369
0.00408363
0.00408361
0.0040836
0.00408358
0.00408356
0.00408355
0.00408352
0.00408348
0.00408343
0.00408339
0.00408338
0.00408336
0.0039304
0.00393039
0.00393036
0.0039303
0.00393024
0.00393016
0.00393006
0.00392993
0.00392977
0.00392959
0.00392938
0.00392912
0.00392886
0.00392857
0.00392828
0.00392804
0.00392783
0.00392751
0.00392716
0.00392681
0.00392652
0.0039263
0.00392626
0.00392612
0.00392598
0.00392591
0.00392592
0.00392603
0.0039262
0.00392639
0.00392685
0.00392733
0.00392783
0.00392837
0.00392893
0.00392948
0.00393003
0.00393053
0.003931
0.00393141
0.00393177
0.00393206
0.00393221
0.00393227
0.00393233
0.00393239
0.00393242
0.00393236
0.00393231
0.0039323
0.00393228
0.00393225
0.00393222
0.0039322
0.00393216
0.00393212
0.00393207
0.00393203
0.00393201
0.00393199
0.00378924
0.00378922
0.00378919
0.00378913
0.00378905
0.00378897
0.00378886
0.00378871
0.00378854
0.00378833
0.0037881
0.00378782
0.00378752
0.0037872
0.00378687
0.00378658
0.00378631
0.00378595
0.00378554
0.00378513
0.00378476
0.00378444
0.00378438
0.00378421
0.00378403
0.00378394
0.00378395
0.00378406
0.00378426
0.00378449
0.00378502
0.00378557
0.00378616
0.00378679
0.00378744
0.00378809
0.00378871
0.0037893
0.00378983
0.0037903
0.00379069
0.00379098
0.00379106
0.00379119
0.0037913
0.00379139
0.00379141
0.00379136
0.00379132
0.0037913
0.00379128
0.00379124
0.0037912
0.00379117
0.00379113
0.00379108
0.00379102
0.00379098
0.00379095
0.00379094
0.00365741
0.00365739
0.00365734
0.00365729
0.0036572
0.00365711
0.00365699
0.00365683
0.00365664
0.00365641
0.00365616
0.00365585
0.00365552
0.00365516
0.00365479
0.00365445
0.00365412
0.0036537
0.00365324
0.00365276
0.00365232
0.00365194
0.00365176
0.00365156
0.00365135
0.00365123
0.00365123
0.00365135
0.00365158
0.00365186
0.00365245
0.00365309
0.00365378
0.00365452
0.00365527
0.00365603
0.00365675
0.00365742
0.00365801
0.00365852
0.00365896
0.00365924
0.00365935
0.00365952
0.00365965
0.00365973
0.00365972
0.00365968
0.00365966
0.00365964
0.0036596
0.00365955
0.0036595
0.00365946
0.0036594
0.00365935
0.00365929
0.00365924
0.00365921
0.0036592
0.00353403
0.00353401
0.00353397
0.0035339
0.00353381
0.00353371
0.00353358
0.00353341
0.0035332
0.00353296
0.00353268
0.00353235
0.00353199
0.00353159
0.00353118
0.00353077
0.00353037
0.00352991
0.00352938
0.00352884
0.0035283
0.00352783
0.00352745
0.00352729
0.00352707
0.00352692
0.0035269
0.00352703
0.00352729
0.00352763
0.0035283
0.00352904
0.00352985
0.00353071
0.00353158
0.00353245
0.00353327
0.00353402
0.00353466
0.00353519
0.00353562
0.00353591
0.00353613
0.00353633
0.00353648
0.00353654
0.00353652
0.00353648
0.00353646
0.00353643
0.00353638
0.00353631
0.00353625
0.0035362
0.00353613
0.00353607
0.003536
0.00353594
0.00353592
0.00353589
0.00341835
0.00341833
0.00341829
0.00341822
0.00341812
0.00341801
0.00341787
0.00341769
0.00341747
0.00341721
0.00341691
0.00341655
0.00341616
0.00341573
0.00341526
0.00341476
0.00341429
0.00341379
0.00341321
0.0034126
0.00341198
0.0034114
0.00341092
0.00341071
0.00341043
0.00341024
0.0034102
0.00341033
0.00341063
0.00341104
0.0034118
0.00341266
0.0034136
0.00341459
0.00341561
0.00341661
0.00341754
0.00341835
0.00341904
0.00341962
0.00342002
0.00342036
0.00342066
0.00342088
0.00342101
0.00342103
0.00342101
0.00342099
0.00342096
0.00342091
0.00342084
0.00342076
0.00342068
0.00342061
0.00342053
0.00342046
0.00342038
0.00342032
0.00342029
0.00342027
0.00330969
0.00330966
0.00330962
0.00330955
0.00330945
0.00330933
0.00330918
0.00330899
0.00330876
0.00330849
0.00330816
0.00330779
0.00330737
0.0033069
0.00330638
0.00330583
0.00330528
0.00330473
0.00330408
0.00330338
0.00330267
0.00330201
0.00330142
0.00330109
0.00330076
0.00330052
0.00330045
0.00330059
0.00330094
0.00330143
0.0033023
0.0033033
0.00330439
0.00330555
0.00330672
0.00330786
0.00330887
0.00330975
0.00331051
0.00331114
0.00331157
0.00331195
0.00331226
0.00331247
0.00331257
0.00331257
0.00331254
0.00331252
0.00331247
0.00331239
0.0033123
0.00331221
0.00331211
0.00331202
0.00331193
0.00331184
0.00331176
0.0033117
0.00331166
0.00331163
0.00320744
0.00320741
0.00320736
0.00320729
0.00320719
0.00320707
0.00320691
0.00320671
0.00320648
0.00320619
0.00320585
0.00320545
0.00320501
0.00320451
0.00320395
0.00320335
0.00320273
0.0032021
0.00320138
0.0032006
0.0031998
0.00319902
0.00319834
0.00319782
0.00319756
0.00319725
0.00319715
0.0031973
0.0031977
0.00319827
0.00319927
0.00320044
0.00320171
0.00320305
0.0032044
0.0032057
0.00320672
0.00320766
0.00320842
0.00320908
0.0032096
0.00321001
0.00321031
0.00321048
0.00321053
0.00321053
0.0032105
0.00321046
0.00321038
0.00321028
0.00321017
0.00321005
0.00320993
0.00320982
0.00320972
0.00320962
0.00320953
0.00320945
0.00320941
0.00320938
0.00311106
0.00311103
0.00311099
0.00311091
0.00311081
0.00311068
0.00311053
0.00311032
0.00311008
0.00310978
0.00310944
0.00310902
0.00310856
0.00310803
0.00310744
0.00310677
0.00310607
0.00310534
0.00310457
0.00310373
0.00310284
0.00310197
0.00310119
0.00310075
0.00314726
0.00314699
0.00314687
0.00314702
0.00314744
0.00314806
0.00314913
0.00315038
0.00315176
0.00315321
0.00315467
0.00315606
0.00311127
0.00311161
0.0031124
0.00311308
0.00311362
0.00311403
0.00311429
0.00311439
0.00311441
0.0031144
0.00311436
0.00311428
0.00311416
0.00311403
0.00311389
0.00311375
0.0031136
0.00311348
0.00311335
0.00311324
0.00311314
0.00311306
0.00311301
0.00311298
0.00302008
0.00302006
0.00302001
0.00301994
0.00301983
0.00301971
0.00301955
0.00301934
0.00301909
0.0030188
0.00301844
0.00301801
0.00301753
0.00301698
0.00301636
0.00301565
0.00301488
0.00301406
0.00301321
0.00301234
0.00301137
0.00301043
0.00300979
0.00305336
0.00305116
0.00305098
0.00305082
0.00305098
0.00305147
0.00305221
0.00305342
0.00305488
0.00305647
0.00305816
0.00305985
0.00306133
0.00306458
0.00302178
0.00302202
0.00302267
0.00302317
0.00302352
0.00302371
0.00302376
0.00302374
0.0030237
0.00302361
0.00302349
0.00302334
0.00302317
0.003023
0.00302282
0.00302266
0.00302251
0.00302237
0.00302224
0.00302213
0.00302204
0.00302198
0.00302195
0.00293407
0.00293404
0.002934
0.00293393
0.00293383
0.00293371
0.00293355
0.00293335
0.0029331
0.0029328
0.00293244
0.00293201
0.00293152
0.00293096
0.00293031
0.00292958
0.00292876
0.00292788
0.00292696
0.00292602
0.00292501
0.00292403
0.00292346
0.0029628
0.00296089
0.0029824
0.00298232
0.00298254
0.00298309
0.0029839
0.0029852
0.00298675
0.00298849
0.00299035
0.00299225
0.00297282
0.00297546
0.00293712
0.00293686
0.0029374
0.00293781
0.00293805
0.00293814
0.00293813
0.00293808
0.00293798
0.00293784
0.00293767
0.00293747
0.00293726
0.00293705
0.00293685
0.00293665
0.00293648
0.00293632
0.00293618
0.00293605
0.00293596
0.0029359
0.00293585
0.00285265
0.00285262
0.00285258
0.00285251
0.00285241
0.00285229
0.00285214
0.00285194
0.0028517
0.00285141
0.00285105
0.00285063
0.00285013
0.00284957
0.00284891
0.00284816
0.00284732
0.0028464
0.00284541
0.00284441
0.0028434
0.00284248
0.00284201
0.00287742
0.00287615
0.00289492
0.00289548
0.00289593
0.00289662
0.00289754
0.00289879
0.00290031
0.0029021
0.00290411
0.00290616
0.00289015
0.00289156
0.00285738
0.00285659
0.00285691
0.00285715
0.00285724
0.00285722
0.00285715
0.00285703
0.00285686
0.00285665
0.00285642
0.00285617
0.00285592
0.00285567
0.00285543
0.00285521
0.00285501
0.00285483
0.00285467
0.00285453
0.00285443
0.00285436
0.00285432
0.00277546
0.00277543
0.00277539
0.00277533
0.00277524
0.00277513
0.00277498
0.00277479
0.00277456
0.00277427
0.00277393
0.00277352
0.00277303
0.00277247
0.00277182
0.00277108
0.00277024
0.00276931
0.0027683
0.00276726
0.00276628
0.00276549
0.00276521
0.00279722
0.00279668
0.00281243
0.00281451
0.00281564
0.00281695
0.00281823
0.00281949
0.00282068
0.00282206
0.00282372
0.00282568
0.00281283
0.00281277
0.00278227
0.00278089
0.00278085
0.00278086
0.00278078
0.00278064
0.00278047
0.00278025
0.00277998
0.00277969
0.00277939
0.00277908
0.00277878
0.00277849
0.00277822
0.00277796
0.00277774
0.00277754
0.00277737
0.00277722
0.0027771
0.00277703
0.00277698
0.00270219
0.00270216
0.00270213
0.00270207
0.00270199
0.00270189
0.00270176
0.00270158
0.00270136
0.00270109
0.00270077
0.00270037
0.00269991
0.00269937
0.00269874
0.00269802
0.00269721
0.00269631
0.00269534
0.00269436
0.00269348
0.00269287
0.00269295
0.00272217
0.00272264
0.00273571
0.00274069
0.00274391
0.0027474
0.00275031
0.0027516
0.00275117
0.00275037
0.00275013
0.0027509
0.00274125
0.00273903
0.00271148
0.00270949
0.00270894
0.00270867
0.00270838
0.00270808
0.00270775
0.0027074
0.00270702
0.00270665
0.00270627
0.0027059
0.00270554
0.00270521
0.0027049
0.00270461
0.00270436
0.00270415
0.00270395
0.00270379
0.00270367
0.00270359
0.00270354
0.00263256
0.00263254
0.0026325
0.00263245
0.00263238
0.00263229
0.00263217
0.00263202
0.00263182
0.00263157
0.00263127
0.00263091
0.00263048
0.00262998
0.00262939
0.00262871
0.00262796
0.00262714
0.00262628
0.00262546
0.00262485
0.00262454
0.00262531
0.00265258
0.00265427
0.00266612
0.00267796
0.00268713
0.00269908
0.00270965
0.00271167
0.0027037
0.00269339
0.00268618
0.0026827
0.00267544
0.00267034
0.00264479
0.00264223
0.00264101
0.00264034
0.00263975
0.00263921
0.00263869
0.00263819
0.0026377
0.00263722
0.00263676
0.00263633
0.00263592
0.00263553
0.00263518
0.00263487
0.0026346
0.00263435
0.00263415
0.00263398
0.00263384
0.00263376
0.0026337
0.00256631
0.00256629
0.00256626
0.00256622
0.00256616
0.00256608
0.00256598
0.00256585
0.00256567
0.00256546
0.00256519
0.00256487
0.00256448
0.00256403
0.00256351
0.00256291
0.00256225
0.00256156
0.00256089
0.00256034
0.0025602
0.00256045
0.00256258
0.00258894
0.0025923
0.00260812
0.0026344
0.00266409
0.00271397
0.00277099
0.00278082
0.00272897
0.00267267
0.00263926
0.00262353
0.00261515
0.00260686
0.00258192
0.00257888
0.0025768
0.00257558
0.00257459
0.00257376
0.00257303
0.00257235
0.00257173
0.00257115
0.0025706
0.0025701
0.00256963
0.0025692
0.00256882
0.00256847
0.00256817
0.00256791
0.00256769
0.00256751
0.00256737
0.00256728
0.00256722
0.0025032
0.00250318
0.00250316
0.00250313
0.00250308
0.00250302
0.00250294
0.00250283
0.00250269
0.00250251
0.00250229
0.00250201
0.00250168
0.0025013
0.00250086
0.00250037
0.00249985
0.00249935
0.00249894
0.0024988
0.00249934
0.00250057
0.00250536
0.00253221
0.00253888
0.00256903
0.00262666
0.00272671
0.00286192
0.0030057
0.00304441
0.00293349
0.00276379
0.00262823
0.00257854
0.00255935
0.00254881
0.00252267
0.00251916
0.00251601
0.00251411
0.00251263
0.00251148
0.0025105
0.00250964
0.00250888
0.00250818
0.00250755
0.00250698
0.00250645
0.00250598
0.00250556
0.00250518
0.00250486
0.00250458
0.00250435
0.00250415
0.002504
0.00250391
0.00250385
0.00244301
0.002443
0.00244298
0.00244296
0.00244293
0.00244289
0.00244284
0.00244275
0.00244265
0.00244251
0.00244234
0.00244212
0.00244186
0.00244157
0.00244123
0.00244088
0.00244053
0.00244027
0.00244023
0.00244064
0.00244207
0.00244489
0.00245404
0.00248318
0.00249893
0.00255822
0.00268042
0.00286446
0.00313324
0.00394863
0.00406716
0.00344808
0.00298116
0.0026902
0.00255456
0.00250684
0.00249635
0.00246653
0.00246269
0.00245831
0.00245562
0.00245361
0.0024521
0.00245085
0.00244981
0.0024489
0.00244809
0.00244738
0.00244673
0.00244616
0.00244564
0.00244519
0.00244479
0.00244444
0.00244415
0.0024439
0.00244369
0.00244354
0.00244344
0.00244338
0.00238556
0.00238555
0.00238554
0.00238553
0.00238552
0.0023855
0.00238547
0.00238542
0.00238535
0.00238526
0.00238514
0.00238499
0.00238482
0.00238462
0.00238441
0.00238422
0.00238409
0.00238412
0.00238452
0.0023856
0.00238814
0.00239337
0.0024088
0.00244202
0.00247857
0.00258242
0.00280079
0.00315994
0.0269735
0.00521885
0.00330734
0.00283283
0.00255421
0.00245612
0.00244875
0.00241306
0.00240904
0.00240339
0.00239983
0.00239726
0.00239536
0.00239386
0.00239262
0.00239157
0.00239066
0.00238986
0.00238916
0.00238853
0.00238798
0.0023875
0.00238707
0.00238671
0.0023864
0.00238614
0.00238593
0.00238578
0.00238568
0.00238561
0.00233066
0.00233065
0.00233065
0.00233065
0.00233066
0.00233066
0.00233066
0.00233064
0.00233062
0.00233057
0.00233052
0.00233044
0.00233036
0.00233027
0.0023302
0.00233019
0.0023303
0.00233068
0.00233157
0.00233341
0.00233723
0.00234573
0.00236917
0.00240841
0.0024817
0.00263885
0.0030091
0.0123891
0.208378
0.025332
0.00613516
0.00355028
0.00297367
0.00256531
0.00240769
0.00240476
0.00236209
0.00235786
0.00235099
0.00234653
0.00234341
0.00234114
0.00233937
0.00233794
0.00233676
0.00233575
0.00233487
0.00233411
0.00233344
0.00233285
0.00233234
0.0023319
0.00233151
0.00233119
0.00233093
0.00233071
0.00233055
0.00233044
0.00233038
0.00227814
0.00227813
0.00227814
0.00227816
0.00227818
0.00227821
0.00227823
0.00227826
0.00227827
0.00227828
0.00227829
0.00227829
0.0022783
0.00227834
0.00227842
0.0022786
0.00227897
0.0022797
0.00228112
0.00228377
0.00228895
0.00230141
0.00233398
0.00238135
0.00250565
0.00271625
0.00372649
0.0354278
0.0892804
0.0547089
0.0595495
0.00506919
0.0036881
0.00304994
0.00257098
0.00236447
0.00236266
0.00231333
0.0023087
0.00230076
0.00229545
0.00229181
0.00228918
0.00228718
0.00228558
0.00228427
0.00228317
0.00228222
0.00228141
0.0022807
0.00228008
0.00227954
0.00227908
0.00227869
0.00227835
0.00227808
0.00227786
0.00227769
0.00227758
0.00227752
0.00222785
0.00222785
0.00222787
0.0022279
0.00222794
0.00222799
0.00222805
0.0022281
0.00222817
0.00222823
0.00222831
0.00222839
0.0022285
0.00222865
0.00222889
0.00222926
0.00222989
0.00223098
0.00223291
0.00223634
0.00224287
0.00225952
0.00230128
0.00235843
0.00253943
0.00280398
0.00553688
0.0719798
0.107284
0.0306227
0.0204835
0.00463802
0.003774
0.00305373
0.00255964
0.00232804
0.00232084
0.00226658
0.00226121
0.00225238
0.00224632
0.00224224
0.00223931
0.00223709
0.00223535
0.00223393
0.00223275
0.00223175
0.00223089
0.00223015
0.00222951
0.00222895
0.00222847
0.00222807
0.00222773
0.00222745
0.00222722
0.00222705
0.00222694
0.00222687
0.00217966
0.00217966
0.00217969
0.00217974
0.00217979
0.00217987
0.00217995
0.00218005
0.00218016
0.00218028
0.00218042
0.00218058
0.00218079
0.00218106
0.00218144
0.002182
0.00218286
0.00218425
0.00218665
0.00219081
0.0021986
0.00221906
0.00226882
0.00233579
0.00256594
0.00288696
0.00732859
0.103832
0.203873
0.0623157
0.00970554
0.00464877
0.00378234
0.00301092
0.00252516
0.00229689
0.00227829
0.00222162
0.00221513
0.00220559
0.00219894
0.00219452
0.00219134
0.00218896
0.0021871
0.0021856
0.00218436
0.00218331
0.00218242
0.00218165
0.00218099
0.00218042
0.00217993
0.00217952
0.00217918
0.00217889
0.00217866
0.00217849
0.00217838
0.00217831
0.00213344
0.00213344
0.00213348
0.00213354
0.00213361
0.00213371
0.00213383
0.00213396
0.00213411
0.00213428
0.00213449
0.00213473
0.00213503
0.0021354
0.00213591
0.0021366
0.00213767
0.0021394
0.00214223
0.00214702
0.00215579
0.00217914
0.00223486
0.00230965
0.00257071
0.00293459
0.00736027
0.0936172
0.507943
0.216342
0.011424
0.00476537
0.00373484
0.00293568
0.0024729
0.00226686
0.00223488
0.00217829
0.00217033
0.00216021
0.00215315
0.00214849
0.00214514
0.00214264
0.0021407
0.00213914
0.00213785
0.00213678
0.00213587
0.00213508
0.00213441
0.00213383
0.00213334
0.00213292
0.00213257
0.00213229
0.00213206
0.00213188
0.00213178
0.0021317
0.00208906
0.00208906
0.00208911
0.00208918
0.00208928
0.00208939
0.00208954
0.00208971
0.0020899
0.00209013
0.00209039
0.0020907
0.00209107
0.00209152
0.00209213
0.00209302
0.00209432
0.00209634
0.00209948
0.00210473
0.00211415
0.00213927
0.0021988
0.002278
0.00255234
0.00294068
0.00683299
0.0755642
0.476694
0.428392
0.055813
0.00486385
0.00364851
0.00284664
0.00240918
0.00223419
0.0021913
0.00213621
0.00212667
0.00211606
0.0021088
0.00210399
0.00210054
0.00209801
0.00209603
0.00209444
0.00209313
0.00209204
0.00209111
0.00209033
0.00208965
0.00208907
0.00208858
0.00208816
0.00208781
0.00208752
0.00208729
0.00208712
0.00208701
0.00208694
0.00204641
0.00204643
0.00204648
0.00204657
0.00204667
0.00204682
0.00204699
0.00204719
0.00204742
0.00204769
0.00204801
0.00204837
0.0020488
0.00204935
0.00205011
0.00205115
0.00205263
0.00205486
0.00205824
0.00206379
0.00207356
0.00209957
0.00216119
0.00224213
0.00251626
0.00290966
0.00617682
0.057547
0.362399
0.481652
0.109757
0.00482061
0.00354508
0.00275744
0.00234624
0.00219642
0.00214804
0.00209538
0.00208414
0.00207315
0.00206589
0.00206104
0.00205753
0.00205496
0.00205298
0.00205138
0.00205008
0.00204899
0.00204806
0.00204727
0.0020466
0.00204602
0.00204553
0.00204512
0.00204477
0.00204449
0.00204426
0.00204409
0.00204398
0.00204391
0.00200541
0.00200543
0.00200549
0.00200558
0.00200571
0.00200587
0.00200607
0.0020063
0.00200657
0.00200687
0.00200721
0.00200762
0.00200814
0.00200881
0.00200968
0.00201084
0.00201246
0.00201484
0.00201839
0.0020241
0.00203406
0.00206029
0.00212253
0.00220269
0.00246901
0.0028586
0.00560168
0.0449308
0.27939
0.433627
0.136672
0.00468464
0.00344226
0.00267486
0.00228821
0.00215406
0.00210552
0.00205546
0.00204276
0.00203156
0.00202434
0.00201951
0.00201603
0.00201344
0.00201144
0.00200986
0.00200859
0.00200752
0.00200661
0.00200583
0.00200517
0.0020046
0.00200411
0.0020037
0.00200336
0.00200308
0.00200286
0.0020027
0.00200259
0.00200251
0.00196595
0.00196597
0.00196604
0.00196614
0.00196628
0.00196646
0.00196668
0.00196694
0.00196723
0.00196756
0.00196794
0.00196843
0.00196903
0.00196978
0.00197073
0.00197199
0.00197372
0.00197621
0.00197986
0.00198561
0.00199563
0.00202169
0.00208337
0.00216144
0.00241689
0.00280189
0.00514219
0.0365184
0.22449
0.373375
0.15469
0.00473956
0.00334723
0.0026004
0.00223482
0.00210903
0.00206405
0.00201631
0.00200244
0.00199123
0.00198418
0.00197932
0.00197592
0.00197339
0.0019714
0.00196984
0.00196859
0.00196756
0.00196667
0.00196591
0.00196526
0.0019647
0.00196423
0.00196383
0.0019635
0.00196322
0.00196301
0.00196284
0.00196274
0.00196266
0.00192794
0.00192796
0.00192804
0.00192816
0.00192831
0.00192851
0.00192874
0.00192902
0.00192933
0.00192969
0.00193014
0.00193068
0.00193134
0.00193216
0.00193318
0.00193451
0.00193632
0.00193888
0.00194258
0.00194828
0.00195832
0.00198391
0.0020443
0.00211968
0.00236349
0.00274525
0.00477945
0.0307656
0.186479
0.320465
0.162308
0.00615676
0.00326122
0.00253326
0.00218479
0.00206344
0.00202367
0.00197792
0.00196321
0.0019521
0.00194534
0.00194052
0.00193714
0.00193469
0.00193276
0.00193123
0.00193001
0.001929
0.00192816
0.00192743
0.0019268
0.00192626
0.0019258
0.00192541
0.00192509
0.00192482
0.00192461
0.00192445
0.00192435
0.00192428
0.00189131
0.00189134
0.00189142
0.00189154
0.00189171
0.00189192
0.00189215
0.00189244
0.00189279
0.00189321
0.0018937
0.00189429
0.00189499
0.00189586
0.00189694
0.00189833
0.00190019
0.00190279
0.00190651
0.00191214
0.00192212
0.00194707
0.00200582
0.00207827
0.00231075
0.00269044
0.00449668
0.0266194
0.158442
0.276584
0.161705
0.0104631
0.00318165
0.00247164
0.00213752
0.00201894
0.00198434
0.00194033
0.00192512
0.00191419
0.00190773
0.00190301
0.00189973
0.0018973
0.00189541
0.00189393
0.00189277
0.00189181
0.001891
0.00189031
0.00188971
0.00188919
0.00188874
0.00188837
0.00188806
0.0018878
0.0018876
0.00188745
0.00188735
0.00188728
0.00185598