/*--------------------------------*- C++ -*----------------------------------*\
  =========                 |
  \\      /  F ield         | OpenFOAM: The Open Source CFD Toolbox
   \\    /   O peration     | Website:  https://openfoam.org
    \\  /    A nd           | Version:  12
     \\/     M anipulation  |
\*---------------------------------------------------------------------------*/
FoamFile
{
    format      ascii;
    class       volScalarField;
    location    "80";
    object      nut;
}
// * * * * * * * * * * * * * * * * * * * * * * * * * * * * * * * * * * * * * //

dimensions      [0 2 -1 0 0 0 0];

internalField   nonuniform List<scalar> 
16227
(
0.000978543
0.000978543
0.000978543
0.000978543
0.000978543
0.000978543
0.000978543
0.000978543
0.000978543
0.000978543
0.000978543
0.000978543
0.000978544
0.000978544
0.000978544
0.000978544
0.000978544
0.000978544
0.000978544
0.000978544
0.000978544
0.000978544
0.000978544
0.000978544
0.000978544
0.000978544
0.000978544
0.000978544
0.000978544
0.000978544
0.000978544
0.000978544
0.000978544
0.000978544
0.000978544
0.000978544
0.000978544
0.000978544
0.000978544
0.000978544
0.000978544
0.000978544
0.000978544
0.000978544
0.000978544
0.000978544
0.000978544
0.000978544
0.000978544
0.000978544
0.000978544
0.000978543
0.000978543
0.000978543
0.000978543
0.000978543
0.000978543
0.000978543
0.000978543
0.000978543
0.000972834
0.000972834
0.000972834
0.000972834
0.000972834
0.000972834
0.000972834
0.000972834
0.000972834
0.000972834
0.000972835
0.000972835
0.000972836
0.000972836
0.000972836
0.000972836
0.000972836
0.000972836
0.000972836
0.000972836
0.000972837
0.000972837
0.000972837
0.000972837
0.000972837
0.000972837
0.000972837
0.000972837
0.000972837
0.000972836
0.000972837
0.000972837
0.000972837
0.000972837
0.000972837
0.000972837
0.000972837
0.000972837
0.000972837
0.000972837
0.000972837
0.000972837
0.000972837
0.000972837
0.000972837
0.000972836
0.000972836
0.000972836
0.000972836
0.000972836
0.000972836
0.000972836
0.000972835
0.000972835
0.000972834
0.000972834
0.000972835
0.000972834
0.000972834
0.000972834
0.000967494
0.000967494
0.000967494
0.000967494
0.000967494
0.000967495
0.000967494
0.000967494
0.000967494
0.000967494
0.000967495
0.000967495
0.000967497
0.000967497
0.000967498
0.000967498
0.000967498
0.000967498
0.000967498
0.000967497
0.000967498
0.000967498
0.000967498
0.000967498
0.000967498
0.000967498
0.000967498
0.000967498
0.000967498
0.000967497
0.000967498
0.000967498
0.000967498
0.000967498
0.000967498
0.000967498
0.000967499
0.000967498
0.000967498
0.000967498
0.000967498
0.000967498
0.000967498
0.000967498
0.000967498
0.000967498
0.000967498
0.000967498
0.000967498
0.000967498
0.000967497
0.000967496
0.000967495
0.000967495
0.000967495
0.000967495
0.000967495
0.000967494
0.000967494
0.000967494
0.000962481
0.000962481
0.000962481
0.000962481
0.000962481
0.000962481
0.000962482
0.000962481
0.000962481
0.000962481
0.000962481
0.000962482
0.000962484
0.000962485
0.000962485
0.000962485
0.000962485
0.000962486
0.000962485
0.000962484
0.000962485
0.000962485
0.000962485
0.000962485
0.000962486
0.000962486
0.000962486
0.000962486
0.000962486
0.000962485
0.000962486
0.000962486
0.000962486
0.000962486
0.000962486
0.000962487
0.000962487
0.000962487
0.000962487
0.000962487
0.000962487
0.000962487
0.000962487
0.000962487
0.000962487
0.000962486
0.000962486
0.000962486
0.000962486
0.000962486
0.000962485
0.000962483
0.000962482
0.000962482
0.000962482
0.000962483
0.000962482
0.000962482
0.000962482
0.000962481
0.000957759
0.000957759
0.000957759
0.000957759
0.000957759
0.00095776
0.00095776
0.000957759
0.000957759
0.000957759
0.00095776
0.00095776
0.000957763
0.000957764
0.000957764
0.000957764
0.000957764
0.000957764
0.000957762
0.000957761
0.000957763
0.000957764
0.000957764
0.000957764
0.000957764
0.000957764
0.000957764
0.000957764
0.000957764
0.000957763
0.000957764
0.000957765
0.000957765
0.000957765
0.000957765
0.000957766
0.000957766
0.000957766
0.000957766
0.000957766
0.000957767
0.000957767
0.000957767
0.000957767
0.000957767
0.000957767
0.000957766
0.000957766
0.000957766
0.000957765
0.000957763
0.000957762
0.000957761
0.000957761
0.000957761
0.000957762
0.000957761
0.00095776
0.00095776
0.00095776
0.000953299
0.000953299
0.000953299
0.000953299
0.000953299
0.000953299
0.0009533
0.000953299
0.000953299
0.000953299
0.000953299
0.000953299
0.0009533
0.000953303
0.000953304
0.000953304
0.000953304
0.000953303
0.0009533
0.0009533
0.000953302
0.000953303
0.000953303
0.000953303
0.000953303
0.000953303
0.000953303
0.000953303
0.000953303
0.000953303
0.000953304
0.000953304
0.000953305
0.000953305
0.000953306
0.000953306
0.000953307
0.000953307
0.000953307
0.000953307
0.000953308
0.000953308
0.000953308
0.000953308
0.000953308
0.000953308
0.000953308
0.000953308
0.000953308
0.000953306
0.000953303
0.000953302
0.000953302
0.000953302
0.000953303
0.000953303
0.000953302
0.000953301
0.000953301
0.000953301
0.000949074
0.000949074
0.000949074
0.000949074
0.000949074
0.000949074
0.000949075
0.000949074
0.000949074
0.000949074
0.000949073
0.000949073
0.000949074
0.000949077
0.000949078
0.000949079
0.000949078
0.000949075
0.000949073
0.000949073
0.000949076
0.000949077
0.000949077
0.000949077
0.000949077
0.000949077
0.000949077
0.000949077
0.000949077
0.000949077
0.000949078
0.000949079
0.00094908
0.00094908
0.000949081
0.000949082
0.000949082
0.000949083
0.000949083
0.000949084
0.000949084
0.000949085
0.000949085
0.000949085
0.000949085
0.000949085
0.000949085
0.000949085
0.000949084
0.000949081
0.000949079
0.000949078
0.000949078
0.000949079
0.000949079
0.000949079
0.000949078
0.000949078
0.000949078
0.000949078
0.000945063
0.000945063
0.000945063
0.000945063
0.000945063
0.000945063
0.000945063
0.000945063
0.000945062
0.000945062
0.000945061
0.00094506
0.000945061
0.000945062
0.000945065
0.000945066
0.000945065
0.000945061
0.00094506
0.00094506
0.000945063
0.000945063
0.000945063
0.000945063
0.000945063
0.000945063
0.000945063
0.000945064
0.000945064
0.000945063
0.000945065
0.000945066
0.000945067
0.000945068
0.000945069
0.00094507
0.000945071
0.000945072
0.000945073
0.000945074
0.000945075
0.000945075
0.000945075
0.000945076
0.000945076
0.000945076
0.000945076
0.000945076
0.000945074
0.000945071
0.000945069
0.000945069
0.000945069
0.000945069
0.000945069
0.000945069
0.000945068
0.000945068
0.000945068
0.000945068
0.000941246
0.000941245
0.000941246
0.000941245
0.000941245
0.000941245
0.000941245
0.000941245
0.000941245
0.000941244
0.000941243
0.000941242
0.000941242
0.000941242
0.000941247
0.000941248
0.000941245
0.000941241
0.00094124
0.00094124
0.000941243
0.000941243
0.000941243
0.000941243
0.000941243
0.000941243
0.000941243
0.000941243
0.000941244
0.000941243
0.000941246
0.000941247
0.000941249
0.00094125
0.000941251
0.000941253
0.000941254
0.000941255
0.000941257
0.000941258
0.000941259
0.000941259
0.00094126
0.000941261
0.000941261
0.000941261
0.000941261
0.00094126
0.000941257
0.000941255
0.000941253
0.000941254
0.000941254
0.000941254
0.000941254
0.000941254
0.000941253
0.000941253
0.000941252
0.000941252
0.000937606
0.000937606
0.000937606
0.000937605
0.000937605
0.000937605
0.000937605
0.000937605
0.000937604
0.000937603
0.000937602
0.0009376
0.0009376
0.000937601
0.000937604
0.000937605
0.000937601
0.000937598
0.000937597
0.000937596
0.000937599
0.000937599
0.000937599
0.000937599
0.000937598
0.000937599
0.000937599
0.0009376
0.0009376
0.0009376
0.000937603
0.000937604
0.000937606
0.000937608
0.00093761
0.000937612
0.000937614
0.000937616
0.000937617
0.000937619
0.00093762
0.000937621
0.000937622
0.000937623
0.000937624
0.000937624
0.000937624
0.000937622
0.000937618
0.000937617
0.000937616
0.000937616
0.000937616
0.000937616
0.000937616
0.000937616
0.000937615
0.000937615
0.000937615
0.000937615
0.000934128
0.000934128
0.000934128
0.000934128
0.000934128
0.000934127
0.000934127
0.000934127
0.000934126
0.000934125
0.000934123
0.000934121
0.00093412
0.00093412
0.000934121
0.000934123
0.000934119
0.000934117
0.000934115
0.000934115
0.000934116
0.000934117
0.000934117
0.000934116
0.000934116
0.000934116
0.000934116
0.000934117
0.000934118
0.000934118
0.000934121
0.000934124
0.000934126
0.000934128
0.000934131
0.000934133
0.000934136
0.000934138
0.00093414
0.000934142
0.000934144
0.000934146
0.000934147
0.000934148
0.000934149
0.000934149
0.000934148
0.000934146
0.000934143
0.000934142
0.000934141
0.000934141
0.000934141
0.000934141
0.000934141
0.000934141
0.00093414
0.00093414
0.00093414
0.00093414
0.000930801
0.0009308
0.0009308
0.0009308
0.000930799
0.000930799
0.000930799
0.000930798
0.000930797
0.000930796
0.000930794
0.000930792
0.00093079
0.000930789
0.000930789
0.000930791
0.000930787
0.000930784
0.000930782
0.000930781
0.000930781
0.000930783
0.000930783
0.000930782
0.000930782
0.000930782
0.000930782
0.000930783
0.000930784
0.000930785
0.000930788
0.000930791
0.000930794
0.000930797
0.000930801
0.000930804
0.000930807
0.00093081
0.000930813
0.000930815
0.000930818
0.000930819
0.000930821
0.000930823
0.000930823
0.000930823
0.000930821
0.00093082
0.000930818
0.000930816
0.000930816
0.000930816
0.000930816
0.000930816
0.000930816
0.000930816
0.000930815
0.000930814
0.000930814
0.000930814
0.000927611
0.000927611
0.00092761
0.00092761
0.000927609
0.000927609
0.000927608
0.000927607
0.000927606
0.000927604
0.000927602
0.0009276
0.000927597
0.000927595
0.000927594
0.000927593
0.000927592
0.00092759
0.000927587
0.000927585
0.000927584
0.000927586
0.000927586
0.000927585
0.000927584
0.000927584
0.000927585
0.000927586
0.000927587
0.000927588
0.000927592
0.000927596
0.0009276
0.000927604
0.000927608
0.000927612
0.000927616
0.00092762
0.000927623
0.000927626
0.000927629
0.000927632
0.000927634
0.000927635
0.000927636
0.000927636
0.000927633
0.000927633
0.000927631
0.000927629
0.000927629
0.000927629
0.000927629
0.000927629
0.000927629
0.000927628
0.000927628
0.000927627
0.000927627
0.000927627
0.000924549
0.000924549
0.000924548
0.000924547
0.000924547
0.000924546
0.000924545
0.000924544
0.000924542
0.00092454
0.000924538
0.000924535
0.000924532
0.00092453
0.000924527
0.000924525
0.000924524
0.000924522
0.000924519
0.000924517
0.000924514
0.000924517
0.000924516
0.000924515
0.000924514
0.000924514
0.000924514
0.000924516
0.000924517
0.000924518
0.000924523
0.000924528
0.000924532
0.000924537
0.000924542
0.000924547
0.000924552
0.000924557
0.000924561
0.000924565
0.000924569
0.000924572
0.000924574
0.000924576
0.000924576
0.000924575
0.000924574
0.000924573
0.000924572
0.000924571
0.00092457
0.00092457
0.00092457
0.000924569
0.000924569
0.000924569
0.000924568
0.000924568
0.000924567
0.000924567
0.000921605
0.000921605
0.000921604
0.000921604
0.000921603
0.000921602
0.000921601
0.000921599
0.000921597
0.000921595
0.000921592
0.000921589
0.000921586
0.000921582
0.000921579
0.000921577
0.000921575
0.000921572
0.000921568
0.000921566
0.000921563
0.000921564
0.000921563
0.000921562
0.000921561
0.00092156
0.000921561
0.000921563
0.000921564
0.000921566
0.000921572
0.000921577
0.000921583
0.000921589
0.000921595
0.000921601
0.000921607
0.000921613
0.000921618
0.000921623
0.000921627
0.00092163
0.000921633
0.000921635
0.000921633
0.000921633
0.000921633
0.000921633
0.000921631
0.00092163
0.00092163
0.000921629
0.000921629
0.000921629
0.000921628
0.000921628
0.000921627
0.000921627
0.000921626
0.000921626
0.000918772
0.000918771
0.000918771
0.00091877
0.000918769
0.000918768
0.000918767
0.000918765
0.000918763
0.00091876
0.000918757
0.000918753
0.000918749
0.000918745
0.000918742
0.000918739
0.000918736
0.000918733
0.000918728
0.000918724
0.000918721
0.000918721
0.00091872
0.000918718
0.000918717
0.000918717
0.000918717
0.000918719
0.000918721
0.000918724
0.00091873
0.000918737
0.000918743
0.000918751
0.000918758
0.000918765
0.000918772
0.000918779
0.000918785
0.000918791
0.000918796
0.0009188
0.000918803
0.000918804
0.000918803
0.000918803
0.000918803
0.000918802
0.000918801
0.0009188
0.0009188
0.000918799
0.000918799
0.000918798
0.000918798
0.000918797
0.000918796
0.000918796
0.000918795
0.000918795
0.000916041
0.000916041
0.00091604
0.000916039
0.000916038
0.000916037
0.000916036
0.000916033
0.000916031
0.000916028
0.000916024
0.00091602
0.000916016
0.000916011
0.000916007
0.000916003
0.000916
0.000915995
0.00091599
0.000915985
0.000915981
0.000915978
0.000915979
0.000915977
0.000915976
0.000915975
0.000915976
0.000915978
0.000915981
0.000915984
0.000915991
0.000915999
0.000916007
0.000916015
0.000916024
0.000916033
0.000916041
0.000916049
0.000916056
0.000916063
0.000916068
0.000916073
0.000916075
0.000916075
0.000916076
0.000916076
0.000916076
0.000916075
0.000916074
0.000916073
0.000916073
0.000916072
0.000916071
0.000916071
0.00091607
0.000916069
0.000916068
0.000916068
0.000916067
0.000916067
0.000913407
0.000913407
0.000913406
0.000913405
0.000913404
0.000913402
0.000913401
0.000913398
0.000913395
0.000913392
0.000913388
0.000913383
0.000913378
0.000913373
0.000913368
0.000913364
0.00091336
0.000913355
0.000913348
0.000913342
0.000913337
0.000913333
0.000913334
0.000913332
0.00091333
0.00091333
0.000913331
0.000913333
0.000913337
0.000913341
0.00091335
0.000913358
0.000913368
0.000913377
0.000913388
0.000913398
0.000913407
0.000913416
0.000913424
0.000913432
0.000913438
0.000913442
0.000913442
0.000913444
0.000913445
0.000913446
0.000913446
0.000913445
0.000913443
0.000913443
0.000913442
0.000913441
0.00091344
0.000913439
0.000913438
0.000913437
0.000913436
0.000913435
0.000913435
0.000913435
0.000910863
0.000910863
0.000910862
0.000910861
0.00091086
0.000910858
0.000910856
0.000910853
0.00091085
0.000910846
0.000910842
0.000910837
0.000910831
0.000910826
0.00091082
0.000910814
0.00091081
0.000910804
0.000910797
0.00091079
0.000910784
0.00091078
0.000910779
0.000910778
0.000910776
0.000910775
0.000910777
0.00091078
0.000910784
0.00091079
0.000910799
0.00091081
0.00091082
0.000910832
0.000910843
0.000910855
0.000910865
0.000910876
0.000910884
0.000910892
0.000910898
0.000910902
0.000910903
0.000910905
0.000910906
0.000910907
0.000910906
0.000910904
0.000910903
0.000910902
0.000910901
0.0009109
0.000910899
0.000910898
0.000910896
0.000910895
0.000910894
0.000910893
0.000910892
0.000910892
0.000908404
0.000908403
0.000908403
0.000908401
0.0009084
0.000908398
0.000908396
0.000908393
0.00090839
0.000908386
0.000908381
0.000908376
0.00090837
0.000908363
0.000908357
0.00090835
0.000908345
0.000908338
0.000908331
0.000908324
0.000908317
0.000908311
0.000908308
0.000908309
0.000908308
0.000908308
0.00090831
0.000908314
0.00090832
0.000908327
0.000908338
0.00090835
0.000908362
0.000908375
0.000908388
0.0009084
0.000908412
0.000908422
0.000908431
0.000908438
0.000908444
0.000908447
0.000908449
0.000908451
0.000908453
0.000908452
0.000908451
0.000908449
0.000908448
0.000908447
0.000908445
0.000908443
0.000908442
0.00090844
0.000908439
0.000908437
0.000908436
0.000908435
0.000908434
0.000908434
0.000906024
0.000906024
0.000906023
0.000906022
0.00090602
0.000906018
0.000906016
0.000906013
0.00090601
0.000906005
0.000906
0.000905994
0.000905988
0.000905981
0.000905974
0.000905966
0.00090596
0.000905954
0.000905946
0.000905939
0.000905932
0.000905926
0.000905922
0.000905924
0.000905924
0.000905925
0.000905929
0.000905935
0.000905942
0.000905951
0.000905964
0.000905978
0.000905991
0.000906005
0.000906019
0.000906032
0.000906044
0.000906053
0.000906061
0.000906067
0.000906071
0.000906074
0.000906077
0.000906079
0.000906079
0.000906078
0.000906076
0.000906074
0.000906072
0.00090607
0.000906068
0.000906066
0.000906064
0.000906062
0.00090606
0.000906059
0.000906057
0.000906055
0.000906055
0.000906054
0.00090372
0.000903719
0.000903719
0.000903717
0.000903716
0.000903714
0.000903711
0.000903709
0.000903705
0.0009037
0.000903695
0.000903689
0.000903682
0.000903675
0.000903667
0.00090366
0.000903653
0.000903647
0.000903639
0.000903632
0.000903625
0.000903621
0.000903618
0.000903621
0.000903623
0.000903626
0.000903633
0.000903642
0.000903653
0.000903665
0.00090368
0.000903696
0.00090371
0.000903725
0.000903738
0.000903751
0.000903759
0.000903766
0.000903772
0.000903777
0.000903779
0.000903781
0.000903783
0.000903783
0.000903782
0.00090378
0.000903777
0.000903775
0.000903772
0.000903769
0.000903766
0.000903764
0.000903761
0.000903758
0.000903756
0.000903754
0.000903752
0.000903751
0.00090375
0.000903749
0.000901486
0.000901486
0.000901485
0.000901484
0.000901482
0.00090148
0.000901478
0.000901475
0.000901471
0.000901467
0.000901462
0.000901456
0.000901449
0.000901442
0.000901434
0.000901426
0.000901419
0.000901413
0.000901407
0.000901401
0.000901397
0.000901395
0.000901396
0.000901401
0.000901411
0.000901419
0.00090143
0.000901445
0.000901461
0.000901476
0.000901494
0.00090151
0.000901525
0.000901538
0.00090155
0.000901561
0.000901561
0.000901561
0.000901561
0.000901562
0.000901562
0.000901563
0.000901562
0.00090156
0.000901557
0.000901553
0.00090155
0.000901546
0.000901543
0.000901539
0.000901535
0.000901531
0.000901528
0.000901525
0.000901522
0.00090152
0.000901517
0.000901516
0.000901515
0.000901514
0.00089932
0.00089932
0.000899319
0.000899318
0.000899316
0.000899314
0.000899312
0.000899309
0.000899306
0.000899301
0.000899296
0.00089929
0.000899284
0.000899277
0.00089927
0.000899262
0.000899255
0.00089925
0.000899247
0.000899245
0.000899245
0.00089925
0.00089926
0.000899279
0.000900302
0.000900319
0.000900335
0.000900354
0.000900375
0.000900393
0.000900412
0.000900427
0.00090044
0.00090045
0.00090046
0.000900468
0.000899469
0.00089944
0.00089943
0.000899424
0.00089942
0.000899416
0.000899412
0.000899406
0.000899401
0.000899395
0.00089939
0.000899385
0.00089938
0.000899375
0.00089937
0.000899366
0.000899362
0.000899358
0.000899355
0.000899352
0.000899349
0.000899347
0.000899346
0.000899345
0.000897217
0.000897217
0.000897216
0.000897215
0.000897214
0.000897212
0.00089721
0.000897208
0.000897204
0.0008972
0.000897196
0.00089719
0.000897184
0.000897178
0.000897172
0.000897166
0.000897161
0.000897158
0.000897158
0.000897163
0.000897173
0.000897193
0.00089722
0.000898217
0.000898173
0.000898205
0.000898236
0.000898272
0.000898308
0.000898336
0.000898358
0.00089837
0.000898375
0.000898376
0.000898376
0.000898367
0.000898417
0.000897424
0.000897381
0.000897363
0.00089735
0.00089734
0.00089733
0.00089732
0.000897311
0.000897303
0.000897295
0.000897288
0.000897281
0.000897275
0.000897269
0.000897263
0.000897258
0.000897253
0.000897249
0.000897246
0.000897243
0.000897241
0.000897239
0.000897238
0.000895175
0.000895174
0.000895174
0.000895173
0.000895172
0.00089517
0.000895169
0.000895167
0.000895164
0.000895161
0.000895157
0.000895152
0.000895148
0.000895143
0.000895139
0.000895135
0.000895133
0.000895134
0.000895142
0.000895157
0.000895183
0.00089523
0.000895272
0.000896176
0.000896184
0.000896695
0.000896755
0.00089682
0.000896876
0.000896911
0.000896927
0.000896923
0.000896908
0.000896892
0.000896883
0.000896409
0.000896399
0.000895496
0.000895416
0.000895379
0.000895352
0.000895331
0.000895312
0.000895297
0.000895283
0.000895272
0.000895261
0.000895252
0.000895243
0.000895234
0.000895227
0.00089522
0.000895213
0.000895208
0.000895203
0.000895199
0.000895196
0.000895193
0.000895191
0.00089519
0.00089319
0.000893189
0.000893189
0.000893188
0.000893187
0.000893186
0.000893185
0.000893184
0.000893182
0.000893179
0.000893177
0.000893174
0.000893171
0.000893168
0.000893167
0.000893167
0.000893171
0.00089318
0.000893197
0.000893229
0.00089328
0.000893368
0.000893429
0.000894252
0.000894385
0.000894762
0.00089495
0.000895098
0.000895205
0.000895253
0.000895236
0.000895171
0.000895088
0.000895017
0.00089497
0.000894609
0.000894486
0.000893665
0.000893541
0.000893471
0.000893424
0.000893388
0.000893359
0.000893335
0.000893316
0.0008933
0.000893285
0.000893272
0.000893261
0.00089325
0.000893241
0.000893232
0.000893225
0.000893219
0.000893213
0.000893209
0.000893204
0.000893201
0.0008932
0.000893199
0.000891259
0.000891258
0.000891258
0.000891258
0.000891257
0.000891257
0.000891257
0.000891256
0.000891255
0.000891254
0.000891253
0.000891252
0.000891251
0.000891252
0.000891255
0.000891261
0.000891273
0.000891293
0.000891327
0.000891383
0.000891473
0.000891618
0.00089171
0.000892487
0.00089281
0.00089297
0.000893469
0.000893812
0.00089408
0.000894204
0.000894146
0.000893933
0.000893666
0.000893425
0.000893256
0.000893032
0.000892699
0.000891942
0.000891764
0.000891644
0.000891568
0.00089151
0.000891467
0.000891434
0.000891407
0.000891384
0.000891365
0.000891348
0.000891333
0.00089132
0.000891309
0.000891299
0.00089129
0.000891282
0.000891276
0.000891271
0.000891266
0.000891263
0.000891261
0.00089126
0.000889379
0.000889379
0.000889379
0.000889379
0.000889379
0.00088938
0.00088938
0.00088938
0.000889381
0.000889381
0.000889382
0.000889384
0.000889387
0.000889392
0.000889401
0.000889415
0.000889438
0.000889475
0.000889533
0.000889626
0.000889775
0.000889995
0.000890151
0.000890945
0.00089153
0.000891478
0.000892657
0.000893484
0.000894253
0.000894704
0.000894595
0.000893941
0.0008931
0.000892358
0.000891841
0.000891774
0.000891076
0.000890334
0.000890093
0.0008899
0.000889784
0.000889699
0.000889637
0.000889589
0.000889552
0.000889522
0.000889496
0.000889475
0.000889457
0.000889441
0.000889427
0.000889415
0.000889405
0.000889397
0.000889389
0.000889383
0.000889378
0.000889375
0.000889372
0.000889371
0.000887549
0.000887549
0.000887549
0.00088755
0.000887551
0.000887552
0.000887553
0.000887555
0.000887557
0.00088756
0.000887563
0.000887568
0.000887575
0.000887586
0.000887603
0.000887628
0.000887666
0.000887725
0.000887818
0.000887962
0.000888199
0.000888519
0.000888812
0.000889737
0.000890641
0.000890654
0.000893302
0.000895486
0.000898031
0.000900007
0.000899936
0.000897614
0.000894711
0.000892409
0.000890953
0.000890915
0.000889681
0.000888847
0.000888543
0.000888249
0.000888077
0.000887953
0.000887865
0.0008878
0.00088775
0.00088771
0.000887678
0.000887651
0.000887629
0.00088761
0.000887594
0.00088758
0.000887569
0.000887559
0.000887551
0.000887544
0.000887538
0.000887534
0.000887531
0.00088753
0.000885765
0.000885765
0.000885766
0.000885767
0.000885769
0.000885771
0.000885774
0.000885777
0.000885781
0.000885786
0.000885793
0.000885802
0.000885815
0.000885833
0.000885859
0.000885897
0.000885955
0.000886044
0.000886182
0.000886397
0.000886755
0.00088722
0.000887793
0.000889033
0.000890333
0.000891379
0.000897151
0.00090365
0.000913822
0.000924773
0.000926
0.000914926
0.000902743
0.000895087
0.000891098
0.000890456
0.000888612
0.000887483
0.000887122
0.000886693
0.000886446
0.00088627
0.000886151
0.000886063
0.000885998
0.000885947
0.000885907
0.000885875
0.000885848
0.000885826
0.000885807
0.000885791
0.000885778
0.000885766
0.000885757
0.00088575
0.000885743
0.000885739
0.000885736
0.000885734
0.000884026
0.000884026
0.000884027
0.000884029
0.000884032
0.000884035
0.000884039
0.000884044
0.000884051
0.000884059
0.000884069
0.000884083
0.000884102
0.000884129
0.000884167
0.000884222
0.000884304
0.00088443
0.000884625
0.000884934
0.000885449
0.000886132
0.000887235
0.000889049
0.000891092
0.000895236
0.000907638
0.000928061
0.00046699
0.000286952
0.000275782
0.000422675
0.000931445
0.000904155
0.000893309
0.000890273
0.000887976
0.000886234
0.000885832
0.000885234
0.000884888
0.000884649
0.000884491
0.000884377
0.000884294
0.000884231
0.000884181
0.000884142
0.000884111
0.000884085
0.000884063
0.000884045
0.00088403
0.000884017
0.000884007
0.000883999
0.000883992
0.000883987
0.000883984
0.000883982
0.000882329
0.000882329
0.000882331
0.000882334
0.000882337
0.000882342
0.000882348
0.000882355
0.000882364
0.000882375
0.00088239
0.00088241
0.000882436
0.000882472
0.000882524
0.000882599
0.000882711
0.000882881
0.000883147
0.00088357
0.000884281
0.0008853
0.000887289
0.000889985
0.00089392
0.000904308
0.000929976
0.000548907
0.000258799
0.000105962
0.00010588
0.000169913
0.000421757
0.000926857
0.000899099
0.00089013
0.000887849
0.000885077
0.000884665
0.000883865
0.0008834
0.000883086
0.000882882
0.000882738
0.000882634
0.000882557
0.000882498
0.000882452
0.000882415
0.000882385
0.000882361
0.00088234
0.000882324
0.00088231
0.000882299
0.000882289
0.000882282
0.000882277
0.000882274
0.000882272
0.000880673
0.000880673
0.000880675
0.000880678
0.000880683
0.000880689
0.000880697
0.000880706
0.000880718
0.000880733
0.000880753
0.000880779
0.000880813
0.000880861
0.000880928
0.000881025
0.00088117
0.000881391
0.00088174
0.000882299
0.000883243
0.000884762
0.000888056
0.000891967
0.000900237
0.000920112
0.000961607
0.000630552
0.000428812
0.000111282
0.00031023
0.000918639
0.000909138
0.000889802
0.000888207
0.000883989
0.000883597
0.000882578
0.000881973
0.000881576
0.00088132
0.000881142
0.000881017
0.000880924
0.000880855
0.000880801
0.000880759
0.000880725
0.000880697
0.000880675
0.000880656
0.000880641
0.000880629
0.000880619
0.000880611
0.000880606
0.000880602
0.0008806
0.000879054
0.000879055
0.000879058
0.000879062
0.000879067
0.000879075
0.000879084
0.000879096
0.000879112
0.000879131
0.000879155
0.000879188
0.000879231
0.000879291
0.000879376
0.000879497
0.000879678
0.000879956
0.000880395
0.000881105
0.000882314
0.000884522
0.000889523
0.000895031
0.00091107
0.000942131
0.000976942
0.000746426
0.0021636
5.42387e-05
0.000315214
0.000449153
0.000988663
0.000921305
0.000889475
0.000888896
0.000882976
0.000882597
0.000881359
0.000880601
0.000880114
0.000879802
0.000879589
0.00087944
0.000879331
0.000879251
0.000879189
0.000879141
0.000879103
0.000879072
0.000879047
0.000879027
0.000879011
0.000878998
0.000878987
0.000878979
0.000878973
0.000878969
0.000878967
0.000877472
0.000877473
0.000877477
0.000877482
0.000877488
0.000877498
0.000877509
0.000877524
0.000877542
0.000877566
0.000877596
0.000877636
0.000877688
0.000877761
0.000877863
0.000878011
0.00087823
0.000878566
0.000879099
0.000879967
0.000881461
0.00088452
0.000891509
0.000899041
0.000926018
0.000967116
0.000944894
0.00116218
0.00341142
0.0184087
0.0075309
0.000469605
0.000824724
0.00102322
0.000932445
0.000889919
0.000889673
0.000882055
0.00088163
0.000880186
0.000879268
0.000878692
0.000878323
0.000878073
0.000877899
0.000877775
0.000877683
0.000877613
0.000877559
0.000877517
0.000877483
0.000877456
0.000877434
0.000877416
0.000877402
0.000877391
0.000877382
0.000877376
0.000877372
0.00087737
0.000875926
0.000875927
0.000875931
0.000875936
0.000875945
0.000875955
0.000875969
0.000875986
0.000876008
0.000876036
0.000876072
0.000876119
0.000876182
0.000876267
0.000876388
0.000876561
0.000876817
0.000877211
0.000877836
0.000878857
0.000880639
0.00088462
0.000893671
0.000903594
0.000942848
0.000990895
0.000986837
0.00214567
0.0133186
0.00760476
0.00154195
0.0005733
0.000984092
0.00103638
0.000940331
0.000891625
0.000890283
0.000881241
0.000880669
0.000879037
0.000877963
0.000877302
0.000876876
0.000876591
0.000876393
0.000876252
0.000876149
0.000876071
0.000876012
0.000875965
0.000875928
0.000875899
0.000875876
0.000875857
0.000875841
0.00087583
0.00087582
0.000875814
0.000875809
0.000875807
0.000874412
0.000874413
0.000874418
0.000874425
0.000874434
0.000874446
0.000874462
0.000874483
0.000874508
0.00087454
0.000874582
0.000874636
0.000874709
0.000874807
0.000874945
0.000875142
0.000875434
0.000875882
0.00087659
0.000877753
0.000879795
0.000884644
0.000895557
0.000907913
0.000958034
0.00101206
0.00106611
0.00327981
0.0196182
0.00627151
0.000916526
0.0007266
0.00104728
0.0010411
0.000943564
0.000894376
0.00089054
0.000880535
0.000879699
0.000877888
0.000876674
0.000875936
0.000875457
0.000875138
0.000874917
0.000874761
0.000874647
0.000874561
0.000874497
0.000874446
0.000874406
0.000874375
0.00087435
0.00087433
0.000874314
0.000874301
0.000874291
0.000874284
0.00087428
0.000874277
0.00087293
0.000872932
0.000872937
0.000872945
0.000872955
0.000872969
0.000872988
0.000873011
0.00087304
0.000873077
0.000873124
0.000873185
0.000873267
0.000873378
0.000873531
0.000873751
0.000874075
0.000874573
0.000875352
0.000876634
0.000878884
0.000884437
0.000896832
0.000911229
0.00096866
0.00102953
0.00107325
0.0033546
0.0294145
0.017041
0.00113649
0.000880417
0.00109385
0.0010393
0.000943084
0.000897382
0.000890403
0.000879915
0.000878706
0.000876723
0.000875392
0.000874587
0.000874061
0.000873711
0.000873469
0.000873299
0.000873174
0.000873082
0.000873012
0.000872958
0.000872916
0.000872882
0.000872856
0.000872834
0.000872818
0.000872805
0.000872794
0.000872787
0.000872783
0.00087278
0.000871479
0.000871481
0.000871487
0.000871495
0.000871507
0.000871523
0.000871543
0.000871569
0.000871602
0.000871643
0.000871696
0.000871764
0.000871854
0.000871975
0.000872144
0.000872385
0.000872739
0.000873278
0.000874113
0.000875487
0.000877885
0.000883922
0.000897382
0.00091311
0.000974412
0.0010413
0.00107128
0.0031681
0.023733
0.0293944
0.00472923
0.00100358
0.00112119
0.00103422
0.000939848
0.00089969
0.000890014
0.000879336
0.00087768
0.000875531
0.000874112
0.000873249
0.000872683
0.000872307
0.000872047
0.000871864
0.00087173
0.000871632
0.000871557
0.0008715
0.000871455
0.00087142
0.000871392
0.000871369
0.000871352
0.000871338
0.000871328
0.00087132
0.000871316
0.000871313
0.000870057
0.000870059
0.000870065
0.000870075
0.000870088
0.000870106
0.000870128
0.000870157
0.000870193
0.000870238
0.000870296
0.000870371
0.000870468
0.0008706
0.000870783
0.000871043
0.00087142
0.000871994
0.000872871
0.000874307
0.000876801
0.000883147
0.000897338
0.000913863
0.000976297
0.00104661
0.00106764
0.00289559
0.0189907
0.0333024
0.00874714
0.00107454
0.00113434
0.0010284
0.000936362
0.000900722
0.000889417
0.000878752
0.000876616
0.000874312
0.000872834
0.000871923
0.000871323
0.000870924
0.000870648
0.000870454
0.000870313
0.000870209
0.00087013
0.000870069
0.000870022
0.000869986
0.000869957
0.000869934
0.000869916
0.000869901
0.000869891
0.000869883
0.000869878
0.000869875
0.000868663
0.000868665
0.000868672
0.000868683
0.000868697
0.000868717
0.000868741
0.000868773
0.000868812
0.000868861
0.000868922
0.000869003
0.000869109
0.000869251