/*--------------------------------*- C++ -*----------------------------------*\
  =========                 |
  \\      /  F ield         | OpenFOAM: The Open Source CFD Toolbox
   \\    /   O peration     | Website:  https://openfoam.org
    \\  /    A nd           | Version:  12
     \\/     M anipulation  |
\*---------------------------------------------------------------------------*/
FoamFile
{
    format      ascii;
    class       volScalarField;
    location    "80";
    object      omega;
}
// * * * * * * * * * * * * * * * * * * * * * * * * * * * * * * * * * * * * * //

dimensions      [0 0 -1 0 0 0 0];

internalField   nonuniform List<scalar> 
16227
(
9.34702
9.34704
9.34704
9.34707
9.34706
9.3471
9.34709
9.34708
9.34707
9.34709
9.34713
9.34715
9.3472
9.3472
9.3472
9.3472
9.3472
9.3472
9.3472
9.3472
9.3472
9.3472
9.3472
9.3472
9.3472
9.3472
9.3472
9.34722
9.34722
9.3472
9.34721
9.3472
9.3472
9.3472
9.34721
9.3472
9.3472
9.3472
9.3472
9.3472
9.3472
9.3472
9.3472
9.3472
9.3472
9.3472
9.3472
9.34719
9.34717
9.34717
9.34717
9.34716
9.3471
9.3471
9.34706
9.34705
9.34707
9.34705
9.34703
9.34702
8.71805
8.71807
8.71807
8.7181
8.7181
8.71814
8.71813
8.7181
8.71811
8.71812
8.71817
8.71819
8.71833
8.71839
8.7184
8.7184
8.7184
8.7184
8.7184
8.7184
8.71841
8.71842
8.71842
8.71842
8.71842
8.71843
8.71843
8.71842
8.71841
8.71836
8.71841
8.71843
8.71843
8.71843
8.71843
8.71842
8.71841
8.71841
8.71841
8.71841
8.71841
8.71841
8.71841
8.7184
8.7184
8.71838
8.71838
8.71838
8.71838
8.71837
8.71834
8.71829
8.71818
8.71816
8.71813
8.71811
8.71814
8.71807
8.71808
8.71806
8.16618
8.1662
8.16621
8.16622
8.16621
8.1663
8.16626
8.16624
8.16625
8.16626
8.1663
8.16632
8.16656
8.16662
8.16663
8.16664
8.16664
8.16663
8.16665
8.1666
8.16664
8.16665
8.16665
8.16665
8.16665
8.16665
8.16665
8.16666
8.16665
8.16658
8.16664
8.16666
8.16666
8.16667
8.16668
8.16668
8.16668
8.16667
8.16666
8.16667
8.16667
8.16667
8.16666
8.16665
8.16666
8.16666
8.16665
8.16665
8.16664
8.16661
8.16658
8.16639
8.16631
8.1663
8.16628
8.16627
8.1663
8.16621
8.16623
8.1662
7.67828
7.6783
7.6783
7.67831
7.67831
7.67838
7.67838
7.67835
7.67835
7.67834
7.67839
7.67844
7.6787
7.67877
7.67878
7.67879
7.6788
7.67881
7.67875
7.67863
7.67874
7.67878
7.67878
7.67878
7.67879
7.6788
7.6788
7.6788
7.67878
7.67871
7.67879
7.67881
7.67882
7.67883
7.67883
7.67885
7.67886
7.67886
7.67887
7.67887
7.67888
7.67887
7.67887
7.67888
7.67887
7.67886
7.67887
7.67886
7.67886
7.67883
7.67871
7.67852
7.67842
7.67844
7.67844
7.67845
7.67843
7.67835
7.67835
7.67833
7.24401
7.24402
7.24402
7.24404
7.24404
7.2441
7.24412
7.24406
7.24407
7.24407
7.2441
7.24415
7.24439
7.24451
7.24453
7.24452
7.24453
7.24451
7.2443
7.24423
7.24442
7.24449
7.24449
7.24449
7.24448
7.24448
7.24449
7.2445
7.24449
7.24441
7.24451
7.24455
7.24457
7.24458
7.24459
7.24461
7.24464
7.24466
7.24467
7.24468
7.24469
7.24471
7.2447
7.24471
7.24471
7.24471
7.24471
7.24471
7.2447
7.24462
7.24438
7.24426
7.24419
7.24421
7.24423
7.24427
7.24421
7.24413
7.24413
7.24412
6.85511
6.85513
6.85513
6.85514
6.85514
6.85518
6.85522
6.85516
6.85514
6.85513
6.85513
6.85516
6.85527
6.85554
6.8556
6.85561
6.8556
6.8555
6.85527
6.85523
6.85545
6.85551
6.8555
6.8555
6.8555
6.85551
6.85552
6.85552
6.85551
6.85544
6.85555
6.8556
6.85564
6.85567
6.8557
6.85574
6.85577
6.8558
6.85583
6.85585
6.85587
6.85589
6.8559
6.85592
6.85592
6.85592
6.85593
6.85593
6.85592
6.85577
6.85553
6.85541
6.85537
6.85541
6.85545
6.85543
6.85538
6.85531
6.85531
6.8553
6.50495
6.50496
6.50495
6.50496
6.50496
6.50499
6.50503
6.505
6.50495
6.50493
6.50491
6.5049
6.50499
6.50524
6.50536
6.50537
6.50534
6.50505
6.50493
6.50493
6.50515
6.5052
6.50519
6.50518
6.50518
6.50518
6.50519
6.50521
6.50521
6.50514
6.50527
6.50534
6.50538
6.50544
6.50549
6.50554
6.50559
6.50565
6.50569
6.50574
6.50577
6.5058
6.50583
6.50584
6.50587
6.50587
6.50587
6.50588
6.5058
6.50553
6.50539
6.5053
6.5053
6.50536
6.50536
6.50535
6.50529
6.50523
6.50524
6.50522
6.18808
6.18808
6.18808
6.18809
6.18807
6.1881
6.18813
6.18811
6.18805
6.188
6.18797
6.18791
6.18795
6.18806
6.18833
6.1884
6.18832
6.18799
6.18788
6.18787
6.18809
6.18814
6.18812
6.1881
6.18809
6.1881
6.18812
6.18814
6.18814
6.18808
6.18823
6.18832
6.1884
6.18847
6.18855
6.18863
6.1887
6.18877
6.18884
6.1889
6.18897
6.189
6.18904
6.18908
6.18911
6.18911
6.18913
6.18912
6.18898
6.18872
6.18859
6.18854
6.18857
6.1886
6.18859
6.18857
6.18852
6.18847
6.18847
6.18845
5.90004
5.90004
5.90004
5.90003
5.90002
5.90003
5.90005
5.90002
5.89999
5.89991
5.89985
5.89977
5.89977
5.89984
5.90015
5.90022
5.90006
5.89973
5.89963
5.8996
5.89982
5.89985
5.89982
5.89979
5.89978
5.89979
5.8998
5.89983
5.89985
5.8998
5.89997
5.90009
5.90019
5.9003
5.9004
5.90051
5.90061
5.90072
5.90081
5.90089
5.90097
5.90104
5.90109
5.90113
5.90117
5.90121
5.90121
5.90114
5.90086
5.90072
5.90063
5.90065
5.90065
5.90067
5.90066
5.90064
5.90061
5.90055
5.90055
5.90054
5.63712
5.63712
5.63711
5.63711
5.63708
5.63708
5.63709
5.63704
5.637
5.63695
5.63686
5.63675
5.63673
5.63679
5.63703
5.63709
5.63676
5.63654
5.63645
5.63643
5.63662
5.63664
5.63659
5.63656
5.63654
5.63654
5.63656
5.6366
5.63663
5.6366
5.63679
5.63693
5.63706
5.6372
5.63734
5.63748
5.63762
5.63775
5.63789
5.63799
5.63809
5.63818
5.63827
5.63833
5.63837
5.63841
5.63842
5.63831
5.63802
5.6379
5.63786
5.63786
5.63786
5.63788
5.63786
5.63785
5.63781
5.63776
5.63775
5.63775
5.39621
5.39621
5.3962
5.39618
5.39616
5.39615
5.39614
5.39608
5.39603
5.39596
5.39588
5.39573
5.39564
5.39564
5.3957
5.39588
5.39556
5.39537
5.39527
5.39522
5.39533
5.39537
5.39533
5.39528
5.39525
5.39525
5.39527
5.39531
5.39537
5.39535
5.39557
5.39575
5.39591
5.39609
5.39627
5.39645
5.39663
5.3968
5.39696
5.39711
5.39724
5.39735
5.39745
5.39753
5.39759
5.39762
5.39757
5.39741
5.39722
5.39712
5.3971
5.39709
5.39709
5.39711
5.3971
5.39708
5.39704
5.39699
5.39699
5.39698
5.17471
5.1747
5.17469
5.17467
5.17463
5.17462
5.17458
5.17453
5.17445
5.17436
5.17426
5.17412
5.17398
5.17391
5.17392
5.17403
5.17377
5.17358
5.17343
5.17334
5.1733
5.17342
5.1734
5.17334
5.1733
5.17329
5.17332
5.17337
5.17343
5.17345
5.17371
5.17392
5.17412
5.17434
5.17457
5.17479
5.17501
5.17523
5.17542
5.17561
5.17577
5.17591
5.17603
5.17614
5.1762
5.17621
5.17606
5.17597
5.17586
5.17577
5.17575
5.17574
5.17574
5.17575
5.17574
5.17572
5.17568
5.17563
5.17563
5.17562
4.97038
4.97037
4.97035
4.97032
4.97029
4.97026
4.97021
4.97014
4.97004
4.96994
4.96982
4.96966
4.9695
4.96934
4.96924
4.96918
4.96908
4.96893
4.96875
4.96861
4.9685
4.96864
4.9686
4.96852
4.96847
4.96846
4.96848
4.96855
4.96863
4.96867
4.96896
4.96921
4.96946
4.96974
4.97001
4.97029
4.97056
4.97082
4.97107
4.97129
4.97149
4.97167
4.97181
4.97193
4.97199
4.97197
4.97183
4.9718
4.97168
4.9716
4.97158
4.97157
4.97157
4.97157
4.97156
4.97154
4.9715
4.97145
4.97145
4.97143
4.78132
4.78133
4.7813
4.78126
4.78121
4.78117
4.78111
4.78103
4.78092
4.78079
4.78065
4.78047
4.78029
4.7801
4.77991
4.7798
4.77971
4.77953
4.77933
4.77915
4.77899
4.7791
4.77904
4.77893
4.77886
4.77884
4.77887
4.77894
4.77904
4.77911
4.77944
4.77974
4.78005
4.78037
4.78071
4.78105
4.78138
4.78169
4.78199
4.78226
4.78249
4.7827
4.78286
4.78299
4.783
4.78295
4.78292
4.78288
4.78278
4.78272
4.7827
4.78269
4.78268
4.78268
4.78266
4.78264
4.7826
4.78256
4.78255
4.78253
4.60593
4.60592
4.60589
4.60585
4.60579
4.60574
4.60567
4.60557
4.60545
4.60529
4.60513
4.60493
4.60472
4.6045
4.60428
4.60412
4.604
4.60378
4.60352
4.6033
4.6031
4.60316
4.60307
4.60293
4.60284
4.60281
4.60283
4.60292
4.60304
4.60315
4.60352
4.60387
4.60424
4.60463
4.60503
4.60543
4.60583
4.60621
4.60656
4.60688
4.60715
4.60739
4.60758
4.60768
4.60762
4.60764
4.60764
4.60762
4.60755
4.60749
4.60748
4.60746
4.60745
4.60744
4.60741
4.60739
4.60734
4.60731
4.60729
4.60727
4.44277
4.44276
4.44273
4.44269
4.44262
4.44256
4.44247
4.44235
4.44221
4.44204
4.44185
4.44162
4.44139
4.44113
4.44088
4.44068
4.4405
4.44024
4.43993
4.43965
4.43942
4.43937
4.43927
4.43912
4.439
4.43895
4.43897
4.43907
4.43922
4.43936
4.43977
4.44019
4.44063
4.44109
4.44157
4.44205
4.44252
4.44297
4.44337
4.44374
4.44406
4.44433
4.44454
4.44462
4.44458
4.44461
4.44463
4.44458
4.44453
4.4445
4.44449
4.44447
4.44445
4.44444
4.44442
4.44438
4.44433
4.44429
4.44428
4.44426
4.29064
4.29063
4.29059
4.29054
4.29047
4.29039
4.29029
4.29016
4.29
4.28981
4.2896
4.28934
4.28907
4.28878
4.28849
4.28824
4.28803
4.28769
4.28734
4.28698
4.28668
4.28645
4.28641
4.28626
4.28612
4.28604
4.28606
4.28616
4.28634
4.28652
4.28699
4.28748
4.28799
4.28854
4.28911
4.28967
4.29023
4.29074
4.29122
4.29164
4.29201
4.2923
4.29246
4.29252
4.29258
4.29264
4.29267
4.29262
4.29257
4.29256
4.29254
4.29251
4.29248
4.29246
4.29243
4.29239
4.29234
4.29229
4.29228
4.29225
4.14847
4.14845
4.14841
4.14836
4.14827
4.14819
4.14808
4.14792
4.14775
4.14754
4.1473
4.14702
4.14671
4.14639
4.14605
4.14575
4.14548
4.14511
4.14468
4.14426
4.14388
4.14355
4.14348
4.1433
4.14311
4.14302
4.14302
4.14313
4.14333
4.14357
4.1441
4.14467
4.14527
4.14592
4.14658
4.14725
4.14789
4.14849
4.14904
4.14951
4.14992
4.15021
4.1503
4.15044
4.15055
4.15065
4.15067
4.15062
4.15058
4.15056
4.15054
4.1505
4.15046
4.15043
4.15039
4.15034
4.15028
4.15024
4.15022
4.1502
4.01532
4.0153
4.01526
4.0152
4.01511
4.01501
4.0149
4.01473
4.01453
4.0143
4.01404
4.01373
4.01338
4.01302
4.01263
4.01228
4.01195
4.01151
4.01103
4.01054
4.01008
4.00968
4.00949
4.00928
4.00906
4.00893
4.00892
4.00904
4.00927
4.00955
4.01016
4.01082
4.01153
4.01229
4.01307
4.01385
4.01459
4.01528
4.01589
4.01642
4.01687
4.01716
4.01728
4.01745
4.0176
4.01768
4.01767
4.01763
4.01761
4.0176
4.01756
4.01751
4.01746
4.01742
4.01737
4.01731
4.01725
4.0172
4.01717
4.01716
3.89038
3.89036
3.89031
3.89024
3.89015
3.89005
3.88992
3.88973
3.88952
3.88927
3.88899
3.88864
3.88827
3.88787
3.88744
3.88701
3.8866
3.88611
3.88556
3.885
3.88443
3.88394
3.88354
3.88336
3.88313
3.88295
3.88292
3.88304
3.88331
3.88366
3.88435
3.88511
3.88595
3.88684
3.88775
3.88865
3.8895
3.89028
3.89095
3.89151
3.89196
3.89226
3.8925
3.8927
3.89287
3.89293
3.89291
3.89288
3.89286
3.89283
3.89278
3.89272
3.89266
3.8926
3.89254
3.89247
3.89241
3.89235
3.89232
3.8923
3.77292
3.77289
3.77285
3.77278
3.77268
3.77256
3.77242
3.77223
3.772
3.77173
3.77142
3.77105
3.77065
3.7702
3.76971
3.76919
3.7687
3.76818
3.76757
3.76692
3.76627
3.76565
3.76513
3.7649
3.76459
3.76437
3.76431
3.76443
3.76473
3.76514
3.76593
3.76682
3.7678
3.76885
3.76991
3.77096
3.77193
3.77279
3.77353
3.77414
3.77456
3.77493
3.77524
3.77548
3.77562
3.77564
3.77563
3.77562
3.77559
3.77554
3.77548
3.7754
3.77532
3.77525
3.77517
3.7751
3.77502
3.77496
3.77493
3.7749
3.66229
3.66227
3.66222
3.66215
3.66204
3.66192
3.66177
3.66157
3.66133
3.66104
3.66071
3.66032
3.65988
3.65939
3.65885
3.65827
3.65769
3.65711
3.65641
3.65566
3.65491
3.6542
3.65355
3.65318
3.65281
3.65253
3.65243
3.65254
3.65288
3.65338
3.65427
3.65532
3.65647
3.65769
3.65894
3.66015
3.66123
3.66217
3.663
3.66367
3.66414
3.66455
3.66488
3.66512
3.66523
3.66524
3.66522
3.6652
3.66516
3.66509
3.665
3.6649
3.66481
3.66472
3.66462
3.66454
3.66446
3.66439
3.66435
3.66432
3.55794
3.55792
3.55787
3.55779
3.55768
3.55756
3.5574
3.55719
3.55694
3.55663
3.55628
3.55586
3.5554
3.55487
3.55428
3.55364
3.55299
3.55231
3.55154
3.55069
3.54982
3.54897
3.54821
3.54761
3.54728
3.54691
3.54676
3.54687
3.54724
3.54782
3.54885
3.55008
3.55144
3.55287
3.55433
3.55572
3.55686
3.5579
3.55874
3.55947
3.56004
3.5605
3.56083
3.56103
3.5611
3.56111
3.5611
3.56106
3.56099
3.56089
3.56078
3.56066
3.56054
3.56044
3.56033
3.56023
3.56014
3.56006
3.56002
3.55999
3.45935
3.45932
3.45927
3.45919
3.45908
3.45895
3.45879
3.45857
3.45831
3.458
3.45763
3.45719
3.4567
3.45614
3.45551
3.4548
3.45404
3.45325
3.45242
3.45149
3.4505
3.4495
3.4486
3.44804
3.49578
3.49542
3.49522
3.49531
3.4957
3.49632
3.49743
3.49877
3.50024
3.50181
3.5034
3.50491
3.45901
3.45949
3.46041
3.46119
3.46181
3.46227
3.46258
3.46271
3.46276
3.46277
3.46274
3.46267
3.46257
3.46244
3.4623
3.46216
3.46202
3.46189
3.46177
3.46165
3.46155
3.46147
3.46142
3.46138
3.36605
3.36603
3.36598
3.3659
3.36579
3.36565
3.36549
3.36527
3.365
3.36468
3.3643
3.36385
3.36334
3.36275
3.36207
3.36131
3.36047
3.35956
3.35862
3.35762
3.35652
3.35539
3.35457
3.39936
3.39707
3.39675
3.39645
3.39649
3.3969
3.39762
3.39889
3.40046
3.40222
3.40409
3.40598
3.40766
3.41109
3.36717
3.3676
3.36839
3.369
3.36943
3.36968
3.36977
3.36978
3.36976
3.3697
3.36959
3.36944
3.36928
3.36911
3.36894
3.36877
3.36862
3.36848
3.36835
3.36824
3.36815
3.36809
3.36805
3.27766
3.27762
3.27758
3.2775
3.27739
3.27726
3.27709
3.27687
3.2766
3.27628
3.2759
3.27543
3.2749
3.27429
3.27358
3.27278
3.27187
3.27088
3.26983
3.26872
3.2675
3.26624
3.26545
3.30605
3.30389
3.32599
3.32568
3.32568
3.32609
3.32686
3.32826
3.33
3.33199
3.33412
3.33628
3.31637
3.31935
3.27988
3.27988
3.28062
3.28118
3.28153
3.28169
3.28174
3.28173
3.28167
3.28155
3.28139
3.2812
3.281
3.28079
3.28059
3.28039
3.28022
3.28006
3.27992
3.27979
3.27969
3.27963
3.27959
3.19378
3.19375
3.1937
3.19362
3.19352
3.19339
3.19323
3.19301
3.19275
3.19242
3.19204
3.19157
3.19103
3.1904
3.18968
3.18883
3.18788
3.18681
3.18565
3.18441
3.1831
3.18176
3.18101
3.21769
3.21578
3.23541
3.23535
3.23532
3.23571
3.23656
3.23801
3.23995
3.24225
3.24475
3.24722
3.23063
3.23265
3.19737
3.19693
3.19754
3.19798
3.19821
3.1983
3.1983
3.19823
3.1981
3.19792
3.1977
3.19746
3.19722
3.19697
3.19673
3.19651
3.19631
3.19613
3.19597
3.19583
3.19573
3.19566
3.19561
3.11409
3.11406
3.11402
3.11395
3.11384
3.11372
3.11356
3.11335
3.1131
3.11278
3.1124
3.11193
3.11139
3.11076
3.11002
3.10916
3.10818
3.10706
3.10581
3.10446
3.10305
3.10165
3.10102
3.13419
3.13244
3.14952
3.15009
3.15015
3.15067
3.15167
3.15327
3.15536
3.15785
3.16056
3.16334
3.14975
3.15086
3.11933
3.11842
3.11879
3.11906
3.11917
3.11918
3.1191
3.11894
3.11873
3.11847
3.11819
3.1179
3.1176
3.11731
3.11704
3.11679
3.11657
3.11636
3.11619
3.11604
3.11592
3.11585
3.11579
3.03829
3.03826
3.03822
3.03815
3.03806
3.03795
3.0378
3.0376
3.03735
3.03705
3.03668
3.03623
3.0357
3.03507
3.03434
3.03348
3.03248
3.03135
3.03006
3.02864
3.02715
3.02572
3.02527
3.05538
3.0539
3.06873
3.07026
3.07102
3.07229
3.07398
3.07581
3.07757
3.07958
3.08187
3.08452
3.07393
3.07385
3.04547
3.04405
3.04409
3.04418
3.04415
3.04403
3.04382
3.04355
3.04324
3.0429
3.04255
3.04219
3.04185
3.04152
3.04121
3.04092
3.04067
3.04045
3.04026
3.0401
3.03997
3.03989
3.03983
2.9661
2.96608
2.96604
2.96598
2.9659
2.96579
2.96565
2.96547
2.96524
2.96495
2.96461
2.96418
2.96367
2.96307
2.96235
2.96151
2.96053
2.9594
2.95813
2.95672
2.95525
2.95384
2.95373
2.9813
2.98018
2.99344
2.99782
3.00075
3.00556
3.0107
3.01318
3.01209
3.01035
3.01004
3.01105
3.00302
3.00145
2.97553
2.97366
2.97328
2.9731
2.97285
2.97253
2.97217
2.97177
2.97135
2.97092
2.97049
2.97008
2.96968
2.9693
2.96895
2.96864
2.96836
2.96812
2.96791
2.96773
2.9676
2.96751
2.96745
2.89728
2.89725
2.89722
2.89717
2.8971
2.897
2.89688
2.89672
2.89651
2.89625
2.89593
2.89553
2.89506
2.89449
2.89381
2.89301
2.89208
2.89101
2.8898
2.88848
2.88716
2.88592
2.88646
2.91209
2.91161
2.92594
2.93641
2.94814
2.96991
2.9964
3.00305
2.98272
2.96061
2.9486
2.94415
2.93687
2.93363
2.90926
2.90702
2.90608
2.90552
2.90497
2.90443
2.90388
2.90334
2.9028
2.90228
2.90177
2.90129
2.90083
2.90041
2.90003
2.89968
2.89938
2.89911
2.89889
2.8987
2.89856
2.89847
2.89841
2.83159
2.83156
2.83154
2.8315
2.83144
2.83136
2.83126
2.83111
2.83093
2.8307
2.83042
2.83006
2.82963
2.82912
2.8285
2.82777
2.82691
2.82594
2.82486
2.82372
2.82269
2.8219
2.82378
2.84823
2.84917
2.86967
2.89396
2.93807
3.05591
3.28416
3.33536
3.12521
2.96721
2.90684
2.88651
2.87479
2.87036
2.8465
2.84383
2.8422
2.84116
2.84026
2.83946
2.83872
2.83802
2.83735
2.83673
2.83614
2.83559
2.83508
2.83462
2.8342
2.83382
2.8335
2.83321
2.83297
2.83277
2.83262
2.83252
2.83246
2.76882
2.7688
2.76878
2.76875
2.76871
2.76865
2.76857
2.76845
2.7683
2.76811
2.76786
2.76756
2.76719
2.76673
2.7662
2.76556
2.76482
2.76399
2.7631
2.76224
2.76165
2.76166
2.76578
2.79014
2.79547
2.82893
2.88224
3.03393
3.62113
7.56638
7.94698
4.53676
3.16944
2.9025
2.84124
2.81626
2.81169
2.7868
2.78375
2.78132
2.77974
2.77845
2.77738
2.77642
2.77556
2.77477
2.77405
2.77338
2.77277
2.77221
2.77171
2.77125
2.77085
2.7705
2.7702
2.76995
2.76974
2.76958
2.76948
2.76941
2.70879
2.70878
2.70876
2.70874
2.70871
2.70867
2.70862
2.70853
2.70842
2.70827
2.70807
2.70782
2.70752
2.70715
2.7067
2.70618
2.70559
2.70495
2.70433
2.70384
2.70383
2.7051
2.71244
2.73779
2.75324
2.80663
2.91261
3.57769
62.9029
14.7238
3.78591
2.94286
2.80949
2.7603
2.75696
2.72974
2.7264
2.72314
2.72097
2.71929
2.71793
2.71677
2.71575
2.71484
2.71402
2.71328
2.71261
2.71201
2.71147
2.71098
2.71056
2.71019
2.70988
2.70962
2.7094
2.70924
2.70914
2.70907
2.65132
2.65131
2.6513
2.6513
2.65128
2.65126
2.65123
2.65118
2.6511
2.651
2.65086
2.65067
2.65045
2.65017
2.64984
2.64945
2.64904
2.64863
2.64832
2.64828
2.64897
2.65197
2.66341
2.69087
2.72394
2.80094
3.08012
16.5979
96.3107
467.047
17.5838
4.12687
2.98098
2.78444
2.70687
2.70534
2.67515
2.6715
2.66746
2.6647
2.66262
2.66098
2.65962
2.65845
2.65743
2.65652
2.65571
2.65499
2.65434
2.65377
2.65326
2.65281
2.65243
2.65211
2.65183
2.65161
2.65145
2.65134
2.65127
2.59625
2.59624
2.59624
2.59625
2.59625
2.59626
2.59625
2.59623
2.5962
2.59614
2.59606
2.59595
2.5958
2.59562
2.59541
2.59518
2.59496
2.5948
2.59484
2.5953
2.59677
2.60188
2.61801
2.64876
2.70583
2.8086
3.94381
30.4839
26.171
2.97191
7.67952
10.7946
4.0487
2.98072
2.75725
2.65695
2.65565
2.62266
2.61868
2.61394
2.61063
2.6082
2.60631
2.60477
2.60346
2.60234
2.60136
2.60049
2.59972
2.59904
2.59843
2.5979
2.59744
2.59704
2.5967
2.59642
2.5962
2.59603
2.59592
2.59584
2.54343
2.54342
2.54343
2.54345
2.54347
2.5435
2.54352
2.54354
2.54354
2.54354
2.54352
2.54348
2.54342
2.54335
2.54327
2.54319
2.54317
2.54326
2.54365
2.5446
2.54686
2.55423
2.57508
2.61005
2.69337
2.82974
5.61073
33.5466
8.05516
4.02678
13.2842
8.09004
3.83501
2.94653
2.72207
2.61101
2.60685
2.57203
2.56761
2.56233
2.55856
2.55584
2.55373
2.55204
2.55062
2.54941
2.54837
2.54745
2.54665
2.54594
2.54531
2.54476
2.54428
2.54387
2.54353
2.54324
2.54301
2.54284
2.54272
2.54265
2.49272
2.49271
2.49274
2.49277
2.4928
2.49285
2.49291
2.49296
2.49301
2.49305
2.4931
2.49313
2.49316
2.49319
2.49323
2.4933
2.49346
2.49378
2.49449
2.49593
2.49899
2.50842
2.53341
2.5727
2.67834
2.85256
6.87414
31.6579
10.392
9.93632
10.5895
6.39798
3.61159
2.89207
2.67619
2.56815
2.55832
2.52303
2.51806
2.51238
2.50828
2.50535
2.50308
2.50127
2.49977
2.49851
2.49741
2.49646
2.49563
2.4949
2.49426
2.49369
2.49321
2.49279
2.49244
2.49215
2.49192
2.49174
2.49163
2.49155
2.444
2.44399
2.44403
2.44407
2.44413
2.4442
2.44428
2.44436
2.44446
2.44455
2.44466
2.44476
2.44487
2.44499
2.44514
2.44532
2.44564
2.44623
2.44727
2.44916
2.45287
2.46387
2.49194
2.53466
2.65388
2.85041
6.85796
27.9071
17.2685
12.6954
10.052
5.41263
3.41438
2.82467
2.62214
2.52608
2.50997
2.47557
2.46992
2.46396
2.45965
2.45658
2.45422
2.45235
2.4508
2.44949
2.44837
2.4474
2.44655
2.4458
2.44515
2.44458
2.44409
2.44368
2.44332
2.44303
2.4428
2.44262
2.4425
2.44243
2.39714
2.39714
2.39718
2.39724
2.39731
2.39741
2.39752
2.39764
2.39777
2.39792
2.39808
2.39824
2.39842
2.3986
2.39884
2.39919
2.39971
2.40054
2.40184
2.40407
2.40823
2.42021
2.45024
2.49477
2.61936
2.82406
6.37831
23.8516
20.0856
14.5739
11.8017
4.84648
3.25415
2.75244
2.56338
2.48329
2.46209
2.42935
2.42306
2.41689
2.41251
2.40939
2.407
2.40513
2.40357
2.40225
2.40112
2.40014
2.39929
2.39854
2.39789
2.39732
2.39683
2.39641
2.39606
2.39577
2.39553
2.39535
2.39524
2.39516
2.35205
2.35206
2.3521
2.35217
2.35226
2.35238
2.35251
2.35266
2.35284
2.35303
2.35323
2.35345
2.35368
2.35395
2.35432
2.35482
2.3555
2.35651
2.35801
2.36048
2.36492
2.37737
2.40845
2.45346
2.57735
2.78007
5.78549
19.874
19.083
14.463
12.5477
4.48621
3.12522
2.68129
2.5057
2.43851
2.41511
2.3845
2.37749
2.37118
2.36688
2.36379
2.36139
2.35952
2.35799
2.35668
2.35556
2.35459
2.35374
2.353
2.35235
2.35179
2.3513
2.35089
2.35054
2.35025
2.35002
2.34984
2.34973
2.34966
2.30862
2.30863
2.30868
2.30876
2.30887
2.309
2.30916
2.30935
2.30955
2.30977
2.31
2.31026
2.31058
2.31097
2.31145
2.31205
2.31286
2.31401
2.31567
2.31828
2.32287
2.33544
2.36684
2.41106
2.53082
2.72756
5.27156
16.7807
17.1703
13.3668
11.9223
4.25158
3.02042
2.61425
2.45122
2.39215
2.36919
2.3408
2.33324
2.32692
2.32267
2.31966
2.31733
2.31547
2.31393
2.31267
2.3116
2.31066
2.30982
2.3091
2.30846
2.3079
2.30743
2.30702
2.30668
2.30639
2.30616
2.30599
2.30588
2.30581
2.26675
2.26677
2.26683
2.26692
2.26704
2.2672
2.26738
2.26759
2.26782
2.26805
2.26833
2.26866
2.26906
2.26952
2.27008
2.27078
2.27169
2.27294
2.27471
2.27739
2.28203
2.29453
2.32562
2.36839
2.48267
2.67376
4.8677
14.5059
15.3222
12.1971
10.9186
4.22913
2.93276
2.55203
2.39991
2.34524
2.32453
2.29816
2.29022
2.28401
2.27992
2.27693
2.2747
2.27292
2.27142
2.27018
2.26913
2.26824
2.26744
2.26673
2.26611
2.26557
2.26511
2.26471
2.26438
2.2641
2.26388
2.26371
2.2636
2.26353
2.22638
2.22639
2.22646
2.22656
2.2267
2.22687
2.22707
2.22729
2.22753
2.22781
2.22815
2.22854
2.22899
2.22952
2.23015
2.23092
2.23191
2.23323
2.23506
2.23774
2.24244
2.2547
2.28506
2.32607
2.43455
2.62152
4.55383
12.8193
13.7758
11.2155
10.0156
4.69769
2.8569
2.49431
2.35118
2.29888
2.28118
2.25659
2.24844
2.24239
2.23855
2.23563
2.23344
2.23175
2.23033
2.22913
2.22812
2.22726
2.22651
2.22584
2.22524
2.22472
2.22427
2.22388
2.22356
2.22329
2.22308
2.22291
2.22281
2.22273
2.1874
2.18742
2.1875
2.18761
2.18775
2.18793
2.18813
2.18836
2.18865
2.18898
2.18936
2.18979
2.19029
2.19087
2.19155
2.19239
2.19343
2.19481
2.19668
2.19935
2.20404
2.21595
2.2454
2.28454
2.3874
2.57166
4.31371
11.5251
12.5464
10.4604
9.32748
5.52511
2.7885
2.44022
2.30474
2.2539
2.23914
2.21612
2.20791
2.20207
2.19847
2.19568
2.19359
2.19193
2.19055
2.18941
2.18848
2.18766
2.18695
2.18632
2.18576
2.18526
2.18483
2.18446
2.18415
2.18389
2.18368
2.18352
2.18342
2.18335
2.14976
2.14978
2.14986
2.14997
2.15012
2.15031
2.15052
2.15079
2.1511
2.15146
2.15188
2.15234
2.15288
2.15351
2.15424
2.15512
2.1562
2.1576
2.15948
2.16215
2.1668
2.17831
2.20678
2.24403
2.34164
2.52411
4.10853
10.4948
11.5853
9.91332
8.82794
6.25584
2.72371
2.38938
2.26044
2.21082
2.19839
2.17677
2.16862
2.16301
2.15966
2.157
2.15504
2.15345
2.15216
2.15106
2.15014
2.14938
2.14871
2.14812
2.1476
2.14713
2.14672
2.14637
2.14607
2.14582
2.14562
2.14547
2.14538
2.1453
2.11337
2.1134
2.11348
2.1136
2.11375
2.11394
2.11419
2.11447
2.11481
2.1152
2.11563
2.11613
2.11671
2.11736
2.11813
2.11904
2.12014
2.12153
2.12345
2.1261
2.13067
2.14179
2.16925
2.20465
2.29738
2.4785
3.92919
9.64789
10.8356
9.46814
8.44566
6.70715
2.66341
2.34169
2.2181
2.16993
2.15893
2.13856
2.13057
2.12521
2.12208
2.11955
2.11772
2.11623
2.11501
2.11399
2.1131
2.11236
2.11174
2.11118
2.11069
2.11026
2.10988
2.10955
2.10926
2.10902
2.10884
2.10869
2.1086
2.10853
2.07818
2.07821
2.07829
2.07841
2.07857
2.07878
2.07904
2.07935
2.0797
2.08011
2.08057
2.08109
2.08169
2.08238
2.08317
2.0841
2.0852
2.08662
2.08856
2.09115
2.09563
2.10637
2.13282
2.16644
2.25463
2.43463
3.76448
8.92127
10.1939
9.07914
8.12135
6.90631
2.61204
2.29661
2.17773
2.13146
2.12074
2.10148
2.09373
2.08861
2.08571
2.08331
2.0816
2.0802
2.07906
2.07811
2.07728
2.07657
2.07595
2.07545
2.07499
2.07459
2.07424
2.07393
2.07366
2.07344
2.07326
2.07312
2.07304
2.07297
2.04413
2.04416
2.04424
2.04436
2.04453
2.04476
2.04503
2.04535
2.04572
2.04614
2.04662
2.04716
2.04778
2.04849
2.0493
2.05024
2.05136
2.05279
2.05473
2.05726
2.06165
2.07202
2.09748
2.1294
2.21332
2.39261
3.60232
8.25998
9.58969
8.71156
7.83195
6.98197
2.5905
2.25397
2.13942
2.09578
2.08382
2.06554
2.05807
2.0532
2.05049
2.04822
2.04663
2.04532
2.04426
2.04337
2.04261
2.04194
2.04135
2.04085
2.04044
2.04007
2.03974
2.03946
2.03921
2.039
2.03883
2.03871
2.03862
2.03855
2.01116
2.01118
2.01127
2.0114
2.01158
2.01181
2.01209
2.01242
2.0128
2.01324
2.01374
2.01429
2.01493
2.01565
2.01647
2.0174
2.01855
2.01999
2.02192
2.02438
2.02868
2.03869
2.0632
2.09353
2.17336
2.34951
3.43687
7.63465
8.99621
8.31479
7.5565
6.93967
2.65234
2.21444
2.10308
2.06351
2.04812
2.03071
2.02357
2.01892
2.0164
2.01424
2.01277
2.01155
2.01056
2.00974
2.00903
2.00841
2.00787
2.00739
2.00698
2.00664
2.00634
2.00608
2.00586
2.00566
2.0055
2.00539
2.00531
2.00524
1.97921
1.97924
1.97933
1.97947
1.97965
1.97989
1.98018
1.98051
1.98091
1.98135
1.98186
1.98243
1.98308
1.98381
1.98464
1.98557
1.98674
1.98816
1.99007
1.99248
1.99668
2.00635
2.02995
2.05879
2.13471
2.30731
3.27101
7.03496
8.40097
7.91061
7.27547
6.79398
2.81056
2.17819
2.06884
2.03561
2.01363
1.99697
1.99017
1.98573
1.98338
1.98134
1.97998
1.97883
1.97792
1.97716
1.9765
1.97593
1.97542
1.97498
1.97459
1.97426
1.97399
1.97375
1.97354
1.97337
1.97323
1.97311
1.97304
1.97298
1.94825
1.94828
1.94837
1.94851
1.9487
1.94894
1.94924
1.94958
1.94998
1.95044
1.95095
1.95153
1.95219
1.95291
1.95373
1.95469
1.95587
1.95727
1.95917
1.96151
1.96561
1.97495
1.99769
2.02519
2.09726
2.26683
3.11046
6.46503
7.82719
7.51564
6.99072
6.61049
3.02558
2.14518
2.0367
2.01335
1.98032
1.96429
1.95784
1.9536
1.9514
1.94947
1.94821
1.94714
1.9463
1.94559
1.94498
1.94445
1.94399
1.94358
1.94322
1.9429
1.94263
1.94242
1.94224
1.94208
1.94195
1.94184
1.94177
1.94171
1.91822
1.91825
1.91834
1.91849
1.91868
1.91893
1.91923
1.91957
1.91998
1.92044
1.92096
1.92155
1.9222
1.92292
1.92375
1.92472
1.9259
1.92728
1.92915
1.93144
1.93544
1.94445
1.9664
1.99269
2.06109
2.22746
2.95793
5.94471
7.29824
7.13701
6.71694
6.40099
3.25656
2.11622
2.00628
1.99797
1.94814
1.93264
1.92654
1.92249
1.92042
1.9186
1.91742
1.91642
1.91565
1.91499
1.91443
1.91394
1.91351
1.91314
1.9128
1.91251
1.91226
1.91205
1.91188
1.91174
1.91162
1.91153
1.91146
1.9114
1.88908
1.88912
1.88921
1.88935
1.88955
1.8898
1.8901
1.89045
1.89086
1.89133
1.89185
1.89244
1.89309
1.89381
1.89465
1.89562
1.89678
1.89814
1.89999
1.90222
1.90612
1.91482
1.93604
1.96129
2.02589
2.18876
2.82308
5.48593
6.81834
6.77608
6.45356
6.17305
3.47422
2.09294
1.97693
1.98967
1.91705
1.90199
1.89622
1.89235
1.8904
1.88867
1.88758
1.88665
1.88593
1.88532
1.8848
1.88435
1.88396
1.88361
1.88331
1.88304
1.8828
1.8826
1.88244
1.88231
1.88221
1.88212
1.88207
1.88201
1.86079
1.86083
1.86093
1.86107
1.86127
1.86152
1.86183
1.86218
1.86259
1.86306
1.86358
1.86417
1.8648
1.86553
1.86638
1.86734
1.8685
1.86983
1.87165
1.87382
1.87763
1.88602
1.9066
1.93097
1.9918
2.15138
2.71332
5.08863
6.38158
6.44164
6.19363
5.94542
3.65389
2.07633
1.94823
1.98682
1.88703
1.87232
1.86685
1.86314
1.8613
1.85966
1.85865
1.85777
1.85711
1.85654
1.85607
1.85565
1.85529
1.85497
1.85469
1.85444
1.85423
1.85404
1.85388
1.85376
1.85367
1.85359
1.85355
1.85349
1.83332
1.83336
1.83346
1.8336
1.8338
1.83405
1.83436
1.83471
1.83512
1.83559
1.83612
1.83669
1.83733
1.83807
1.83891
1.83985
1.841
1.84231
1.8441
1.84621
1.84992
1.85802
1.87807
1.90167
1.95883
2.14131
2.77734
4.93681
5.95449
6.02615
5.85983
5.60857
3.4655
2.03364
1.90735
1.97995
1.858
1.8436
1.83841
1.83484
1.83309
1.83153
1.83059
1.82976
1.82915
1.82863
1.82819
1.82781
1.82747
1.82718
1.82692
1.82669
1.82649
1.82632
1.82618
1.82606
1.82596
1.8259
1.82586
1.82581
1.80663
1.80667
1.80677
1.80691
1.80711
1.80737
1.80767
1.80802
1.80843
1.8089
1.80942
1.80998
1.81063
1.81136
1.8122
1.81313
1.81426
1.81554
1.8173
1.81935
1.82296
1.83077
1.85033
1.86987
1.92659
2.10817
2.69071
4.66191
5.62449
5.75753
5.63079
5.40875
3.51826
2.0256
1.88132
1.96669
1.81476
1.81574
1.81083
1.80741
1.80573
1.80425
1.80336
1.80258
1.80201
1.80153
1.80112
1.80077
1.80047
1.8002
1.79996
1.79975
1.79956
1.79941
1.79927
1.79916
1.79907
1.79901
1.79898
1.79894
1.78068
1.78073
1.78082
1.78097
1.78117
1.78142
1.78172
1.78207
1.78248
1.78294
1.78346
1.78402
1.78466
1.78539
1.78621
1.78713
1.78825
1.7895
1.79123
1.79323
1.79672
1.80425
1.8234
1.84299
1.91653
2.1442
3.01542
4.64878
5.27145
5.39293
5.30892
4.88809
3.03771
1.96724
1.87524
1.87185
1.78942
1.78878
1.78411
1.78081
1.77919
1.77778
1.77693
1.7762
1.77567
1.77522
1.77485
1.77452
1.77424
1.77399
1.77377
1.77358
1.77341
1.77327
1.77314
1.77304
1.77296
1.7729
1.77287
1.77283
1.75545
1.75549
1.75559
1.75574
1.75593
1.75618
1.75648
1.75683
1.75724
1.75769
1.75819
1.75876
1.75941
1.76012
1.76093
1.76184
1.76293
1.76417
1.76585
1.7678
1.77119
1.77845
1.79722
1.81677
1.88934
2.11465
2.94811
4.45674
5.03472
5.18011
5.12881
4.74677
3.04515
1.96937
1.85356
1.84865
1.76515
1.76269
1.75819
1.75501
1.75343
1.75208
1.75128
1.75059
1.75009
1.74967
1.74932
1.74902
1.74876
1.74853
1.74833
1.74815
1.748
1.74787
1.74775
1.74766
1.74758
1.74752
1.74749
1.74746
1.7309
1.73095
1.73104
1.73119
1.73138
1.73163
1.73193
1.73228
1.73268
1.73312
1.73362
1.73418
1.73482
1.73553
1.73633
1.73722
1.7383
1.7395
1.74115
1.74304
1.74633
1.75334
1.77173
1.79125
1.86263
2.08555
2.882
4.27351
4.81666
4.98345
4.95917
4.60979
3.0387
1.96784
1.83245
1.82617
1.74179
1.73745
1.73303
1.72996
1.72842
1.72713
1.72636
1.72571
1.72524
1.72484
1.72452
1.72424
1.724
1.72379
1.7236
1.72344
1.7233
1.72317
1.72307
1.72298
1.72291
1.72286
1.72283
1.7228
1.70701
1.70706
1.70715
1.7073
1.70749
1.70773
1.70803
1.70837
1.70877
1.7092
1.7097
1.71026
1.71089
1.71158
1.71237
1.71324
1.7143
1.71548
1.71709
1.71893
1.72211
1.72889
1.74691
1.76644
1.8366
2.05725
2.81763
4.10018
4.61656
4.80158
4.79934
4.47798
3.02177
1.96294
1.81168
1.80422
1.71922
1.713
1.70861
1.70563
1.70412
1.70289
1.70215
1.70153
1.70109
1.70072
1.70042
1.70016
1.69993
1.69974
1.69957
1.69941
1.69928
1.69917
1.69907
1.69899
1.69893
1.69888
1.69885
1.69881
1.68374
1.6838
1.68389
1.68403
1.68422
1.68447
1.68476
1.6851
1.68549
1.68591
1.68641
1.68696
1.68758
1.68826
1.68904
1.68989
1.69093
1.69208
1.69365
1.69544
1.69852
1.70507
1.72272
1.74228
1.81119
2.02946
2.75495
3.93808
4.43384
4.63296
4.64784
4.35099
2.99795
1.95576
1.79123
1.78272
1.6974
1.6893
1.68489
1.68199
1.68051
1.67933
1.67862
1.67803
1.67761
1.67726
1.67698
1.67673
1.67653
1.67634
1.67618
1.67604
1.67592
1.67582
1.67573
1.67565
1.67559
1.67555
1.67552
1.67548
1.66109
1.66115
1.66124
1.66138
1.66157