/*--------------------------------*- C++ -*----------------------------------*\
  =========                 |
  \\      /  F ield         | OpenFOAM: The Open Source CFD Toolbox
   \\    /   O peration     | Website:  https://openfoam.org
    \\  /    A nd           | Version:  12
     \\/     M anipulation  |
\*---------------------------------------------------------------------------*/
FoamFile
{
    format      ascii;
    class       volScalarField;
    location    "80";
    object      p;
}
// * * * * * * * * * * * * * * * * * * * * * * * * * * * * * * * * * * * * * //

dimensions      [0 2 -2 0 0 0 0];

internalField   nonuniform List<scalar> 
16227
(
0.0347217
0.0347519
0.0348114
0.0348984
0.0350104
0.0351441
0.0352951
0.0354584
0.0356278
0.0357966
0.035957
0.0361005
0.0362178
0.0362992
0.0363341
0.0363118
0.0362211
0.036051
0.0357903
0.0354286
0.034956
0.0343636
0.033644
0.0327912
0.031801
0.0306714
0.0294027
0.0279975
0.0264608
0.0248
0.0230248
0.021147
0.0191802
0.0171393
0.0150405
0.0129006
0.0107367
0.00856571
0.00640437
0.00426846
0.0021728
0.000130989
-0.00184472
-0.00374351
-0.00555604
-0.00727438
-0.00889199
-0.0104036
-0.0118052
-0.0130936
-0.0142667
-0.015323
-0.0162617
-0.0170825
-0.0177854
-0.0183703
-0.0188376
-0.0191875
-0.0194206
-0.0195372
0.034699
0.0347298
0.0347905
0.0348794
0.0349939
0.0351307
0.0352855
0.0354532
0.0356277
0.0358021
0.0359687
0.036119
0.0362437
0.0363328
0.0363757
0.0363616
0.0362792
0.0361171
0.0358643
0.0355098
0.0350438
0.034457
0.0337419
0.0328921
0.0319034
0.0307738
0.0295032
0.0280943
0.0265522
0.0248842
0.0231003
0.0212125
0.0192346
0.0171819
0.0150707
0.0129182
0.0107417
0.00855856
0.00638556
0.00423874
0.00213306
8.22383e-05
-0.00190143
-0.00380709
-0.00562542
-0.00734854
-0.00897001
-0.0104846
-0.0118885
-0.0131785
-0.0143526
-0.0154096
-0.0163487
-0.0171695
-0.0178722
-0.0184568
-0.0189238
-0.0192735
-0.0195063
-0.0196228
0.0346486
0.0346807
0.0347442
0.0348372
0.0349573
0.0351011
0.0352643
0.0354417
0.0356274
0.0358144
0.0359948
0.0361602
0.036301
0.0364071
0.0364679
0.0364719
0.0364078
0.0362637
0.0360282
0.03569
0.0352385
0.0346642
0.0339589
0.033116
0.0321308
0.0310009
0.0297262
0.0283093
0.0267551
0.0250711
0.0232678
0.0213579
0.0193555
0.0172764
0.0151378
0.0129573
0.0107529
0.00854266
0.0063438
0.00417279
0.00204493
-2.58415e-05
-0.0020271
-0.00394796
-0.00577913
-0.00751283
-0.0091428
-0.010664
-0.0120727
-0.0133662
-0.0145427
-0.0156011
-0.0165409
-0.0173618
-0.018064
-0.018648
-0.0191144
-0.0194635
-0.0196959
-0.0198121
0.0345629
0.0345974
0.0346654
0.0347655
0.0348949
0.0350503
0.0352275
0.0354214
0.0356259
0.035834
0.0360377
0.0362285
0.0363966
0.0365315
0.0366223
0.0366571
0.036624
0.0365105
0.0363045
0.035994
0.0355672
0.0350143
0.034326
0.0334949
0.0325158
0.0313856
0.030104
0.0286733
0.0270987
0.0253879
0.0235518
0.0216042
0.0195601
0.0174363
0.0152509
0.0130228
0.0107713
0.0085151
0.00627246
0.00406059
0.00189528
-0.000209107
-0.00223994
-0.00418632
-0.00603896
-0.00779033
-0.00943439
-0.0109665
-0.0123833
-0.0136824
-0.0148626
-0.0159232
-0.0168639
-0.0176846
-0.018386
-0.018969
-0.0194342
-0.0197823
-0.020014
-0.0201298
0.0344422
0.0344799
0.0345544
0.034664
0.0348063
0.034978
0.0351747
0.0353914
0.035622
0.0358595
0.0360957
0.036322
0.0365282
0.0367036
0.0368365
0.0369147
0.0369253
0.0368552
0.0366912
0.0364198
0.0360284
0.035506
0.034842
0.0340281
0.0330579
0.0319277
0.0306365
0.0291866
0.0275831
0.0258341
0.0239516
0.0219506
0.0198471
0.0176596
0.0154079
0.0131125
0.0107941
0.00847301
0.00616874
0.00389948
0.00168179
-0.000469428
-0.00254135
-0.0045229
-0.00640502
-0.00818049
-0.00984362
-0.0113903
-0.0128177
-0.0141241
-0.015309
-0.0163721
-0.0173134
-0.0181333
-0.0188333
-0.0194145
-0.0198779
-0.0202244
-0.020455
-0.0205702
0.0342855
0.0343272
0.0344097
0.0345315
0.03469
0.034882
0.0351033
0.0353488
0.0356125
0.0358873
0.036165
0.0364363
0.0366914
0.0369186
0.0371057
0.0372398
0.0373071
0.0372934
0.0371841
0.0369639
0.036619
0.0361369
0.0355055
0.0347147
0.0337568
0.0326272
0.0313242
0.0298496
0.0282088
0.0264103
0.0244674
0.0223965
0.0202156
0.0179451
0.0156069
0.0132239
0.0108187
0.00841369
0.00602996
0.00368693
0.00140229
-0.000808489
-0.00293223
-0.00495789
-0.0068767
-0.00868175
-0.010368
-0.0119321
-0.0133718
-0.0146866
-0.0158764
-0.0169417
-0.0178825
-0.0187008
-0.0193983
-0.0199767
-0.0204373
-0.0207816
-0.0210105
-0.0211248
0.0340877
0.0341342
0.0342264
0.0343627
0.0345406
0.0347572
0.0350081
0.0352884
0.0355921
0.0359121
0.0362402
0.0365666
0.0368814
0.0371724
0.0374267
0.0376302
0.0377681
0.0378252
0.0377845
0.0376292
0.0373437
0.0369135
0.0363241
0.0355637
0.0346229
0.0334954
0.0321787
0.0306742
0.0289871
0.0271269
0.0251083
0.0229497
0.0206714
0.0182966
0.0158499
0.013357
0.0108435
0.00833397
0.00585171
0.0034178
0.00105113
-0.00123224
-0.00341861
-0.00549715
-0.00745929
-0.00929895
-0.0110118
-0.0125954
-0.0140486
-0.015372
-0.0165663
-0.0176323
-0.0185714
-0.0193866
-0.0200802
-0.0206544
-0.0211111
-0.0214521
-0.0216786
-0.0217916
0.0338431
0.0338952
0.0339986
0.0341518
0.0343524
0.0345975
0.0348831
0.0352043
0.035555
0.0359285
0.0363163
0.0367085
0.0370945
0.0374624
0.0377975
0.0380853
0.0383094
0.0384531
0.0384972
0.0384228
0.0382117
0.0378469
0.0373113
0.0365905
0.0356727
0.0345499
0.0332181
0.0316781
0.0299352
0.0279996
0.0258879
0.0236213
0.021223
0.0187194
0.0161391
0.0135113
0.0108651
0.00822825
0.00562656
0.00308319
0.000618411
-0.00175095
-0.00401093
-0.00615086
-0.00816279
-0.0100413
-0.0117835
-0.0133878
-0.0148548
-0.0161862
-0.0173836
-0.0184482
-0.0193834
-0.0201934
-0.020881
-0.0214492
-0.0219003
-0.0222368
-0.0224601
-0.0225715
0.0335467
0.0336052
0.0337212
0.0338936
0.03412
0.0343977
0.034723
0.035091
0.035496
0.035931
0.0363881
0.0368572
0.0373269
0.037785
0.0382161
0.0386044
0.0389321
0.0391803
0.0393276
0.0393522
0.039233
0.03895
0.0384823
0.0378124
0.0369256
0.0358111
0.0344633
0.032882
0.0310726
0.0290461
0.0268214
0.0244233
0.0218786
0.0192182
0.0164754
0.0136841
0.0108778
0.00808807
0.00534396
0.00267096
9.10156e-05
-0.00237814
-0.0047226
-0.00693194
-0.00899915
-0.01092
-0.0126929
-0.0143182
-0.0157982
-0.0171355
-0.018333
-0.0193931
-0.0203218
-0.0211235
-0.0218024
-0.022362
-0.0228056
-0.0231359
-0.0233548
-0.0234639
0.0331929
0.0332584
0.0333885
0.0335821
0.0338373
0.0341515
0.0345211
0.0349418
0.0354081
0.0359131
0.0364491
0.0370063
0.0375726
0.0381354
0.0386788
0.0391851
0.0396357
0.0400086
0.0402799
0.0404248
0.0404182
0.0402363
0.0398537
0.0392489
0.0384031
0.0373024
0.0359386
0.0343101
0.0324222
0.0302871
0.0279265
0.0253694
0.0226476
0.0197977
0.016859
0.0138713
0.0108736
0.00790238
0.00499054
0.0021663
-0.000546727
-0.00312978
-0.00556903
-0.00785499
-0.00998184
-0.011947
-0.0137506
-0.0153954
-0.0168858
-0.018226
-0.0194186
-0.0204703
-0.0213882
-0.0221779
-0.0228444
-0.0233923
-0.0238256
-0.0241477
-0.0243608
-0.024467
0.0327746
0.0328478
0.0329932
0.0332101
0.0334967
0.0338508
0.0342693
0.0347482
0.0352826
0.0358658
0.0364904
0.037147
0.0378234
0.038506
0.0391794
0.0398231
0.0404176
0.0409381
0.0413578
0.0416476
0.0417785
0.041721
0.0414449
0.040923
0.0401317
0.0390525
0.0376739
0.0359923
0.0340125
0.0317484
0.0292251
0.0264769
0.0235419
0.0204639
0.01729
0.0140676
0.0108427
0.00765764
0.00454991
0.00155109
-0.00131348
-0.00402448
-0.00656834
-0.00893675
-0.0111259
-0.0131355
-0.0149682
-0.0166292
-0.0181252
-0.019462
-0.0206443
-0.0216822
-0.0225841
-0.0233565
-0.024006
-0.0245382
-0.024958
-0.0252694
-0.0254751
-0.0255775
0.032284
0.0323652
0.0325271
0.0327688
0.0330892
0.0334863
0.0339577
0.0345
0.0351088
0.0357783
0.0365011
0.0372685
0.0380688
0.0388874
0.0397089
0.0405118
0.0412741
0.0419681
0.0425641
0.0430283
0.0433263
0.0434216
0.0432782
0.0428623
0.042143
0.0410962
0.0397059
0.0379656
0.0358794
0.0334626
0.0307448
0.027767
0.0245756
0.0212235
0.0177679
0.0142659
0.0107722
0.0073364
0.00400151
0.000802764
-0.00223253
-0.00508499
-0.00774197
-0.0101971
-0.0124492
-0.0145009
-0.0163588
-0.0180303
-0.0195245
-0.0208497
-0.0220145
-0.0230315
-0.0239102
-0.0246591
-0.0252859
-0.0257976
-0.0261999
-0.0264975
-0.0266939
-0.0267914
0.0317124
0.0318022
0.0319812
0.0322492
0.0326051
0.0330478
0.0335756
0.0341858
0.0348749
0.0356381
0.0364686
0.0373582
0.0382963
0.0392679
0.0402572
0.0412427
0.0421991
0.0430961
0.043901
0.044574
0.0450742
0.0453573
0.0453803
0.0450995
0.0444755
0.0434765
0.0420802
0.0402761
0.038067
0.0354698
0.0325195
0.0292659
0.0257655
0.0220838
0.0182906
0.0144555
0.0106443
0.00691548
0.00331863
-0.000107147
-0.00333287
-0.00633938
-0.00911617
-0.0116597
-0.0139724
-0.0160612
-0.0179369
-0.01961
-0.021092
-0.0223956
-0.0235335
-0.0245203
-0.0253672
-0.0260847
-0.0266821
-0.0271675
-0.0275477
-0.0278281
-0.0280127
-0.0281042
0.0310513
0.0311498
0.0313465
0.0316415
0.0320343
0.0325245
0.0331113
0.0337931
0.0345675
0.0354308
0.0363777
0.0374008
0.0384905
0.0396327
0.0408104
0.0420033
0.0431828
0.0443168
0.0453683
0.0462911
0.0470363
0.0475506
0.0477816
0.0476733
0.0471752
0.0462453
0.0448525
0.0429808
0.0406303
0.0378198
0.0345912
0.0310049
0.0271313
0.0230519
0.0188532
0.0146209
0.0104348
0.00636428
0.00246661
-0.00121486
-0.00465034
-0.00782194
-0.0107223
-0.0133525
-0.0157201
-0.0178372
-0.0197189
-0.02138
-0.0228366
-0.0241066
-0.0252055
-0.0261505
-0.0269551
-0.0276318
-0.0281917
-0.0286441
-0.0289968
-0.0292559
-0.029426
-0.0295102
0.0302916
0.030399
0.0306135
0.0309357
0.0313659
0.0319046
0.0325521
0.0333081
0.0341715
0.0351406
0.0362114
0.0373782
0.0386329
0.039963
0.0413515
0.0427781
0.0442127
0.0456216
0.0469627
0.0481837
0.0492258
0.0500251
0.0505165
0.0506287
0.0502971
0.0494656
0.0480913
0.04615
0.0436378
0.040575
0.0370115
0.0330223
0.0286959
0.0241346
0.0194472
0.01474
0.0101106
0.00564245
0.00140105
-0.00256613
-0.00622935
-0.009574
-0.0125977
-0.0153082
-0.0177202
-0.0198516
-0.0217228
-0.0233537
-0.0247686
-0.025989
-0.0270336
-0.0279228
-0.0286725
-0.0292976
-0.0298106
-0.0302221
-0.0305411
-0.0307744
-0.0309269
-0.0310023
0.0294245
0.0295405
0.0297725
0.0301215
0.0305889
0.031176
0.0318844
0.0327156
0.0336704
0.0347489
0.0359497
0.037269
0.038701
0.0402356
0.041857
0.0435453
0.0452703
0.0469963
0.0486767
0.0502525
0.0516542
0.0528056
0.0536233
0.0540182
0.0539069
0.0532143
0.0518814
0.0498718
0.0471753
0.043813
0.0398452
0.0353655
0.030486
0.0253376
0.0200579
0.0147809
0.0096271
0.00469657
6.46479e-05
-0.00421827
-0.00812457
-0.0116453
-0.0147861
-0.0175638
-0.0200028
-0.0221283
-0.0239656
-0.0255451
-0.0268974
-0.028048
-0.0290197
-0.0298365
-0.0305167
-0.0310775
-0.0315328
-0.0318948
-0.0321732
-0.0323754
-0.0325069
-0.0325719
0.0284412
0.0285653
0.0288139
0.0291886
0.0296915
0.0303255
0.0310937
0.0319994
0.0330457
0.0342353
0.0355697
0.0370482
0.0386679
0.0404221
0.0422977
0.0442766
0.0463293
0.0484192
0.0504956
0.0524931
0.0543302
0.0559164
0.057144
0.0579022
0.0580823
0.0575845
0.0563271
0.0542562
0.0513511
0.047633
0.0431742
0.0380927
0.032533
0.026664
0.0206625
0.0146989
0.00892316
0.00345611
-0.00161651
-0.00624353
-0.0104027
-0.0140952
-0.017339
-0.0201625
-0.0226015
-0.0246907
-0.0264654
-0.0279669
-0.0292309
-0.030287
-0.0311641
-0.031889
-0.032483
-0.032965
-0.0333507
-0.0336534
-0.0338835
-0.034049
-0.0341559
-0.0342084
0.0273331
0.0274646
0.0277282
0.0281264
0.0286623
0.0293402
0.0301648
0.031142
0.0322775
0.033577
0.0350457
0.0366869
0.0385018
0.0404882
0.0426375
0.0449352
0.0473542
0.0498584
0.0523948
0.0548923
0.057256
0.0593776
0.0611226
0.0623502
0.0629172
0.0626911
0.0615597
0.0594433
0.0563048
0.0521621
0.0471026
0.0412765
0.0348729
0.0281123
0.0212248
0.0144289
0.00791438
0.00182675
-0.00373821
-0.00873238
-0.0131451
-0.0169939
-0.0203151
-0.0231518
-0.0255527
-0.0275655
-0.0292415
-0.0306307
-0.0317742
-0.0327071
-0.0334642
-0.0340754
-0.0345642
-0.0349515
-0.0352544
-0.0354871
-0.0356606
-0.0357833
-0.0358617
-0.0358999
0.0260925
0.0262303
0.0265069
0.0269253
0.02749
0.0282068
0.0290825
0.0301254
0.0313445
0.0327492
0.0343489
0.036152
0.0381654
0.0403926
0.0428315
0.0454737
0.0482975
0.0512691
0.054336
0.0574237
0.0604249
0.0632079
0.0656084
0.0674417
0.0685192
0.0686702
0.0677392
0.0656083
0.0622131
0.0575633
0.0517639
0.0450091
0.0375486
0.0296754
0.021692
0.0138821
0.00648553
-0.000317309
-0.0064237
-0.0117978
-0.0164504
-0.0204237
-0.0237795
-0.026581
-0.0288909
-0.0307788
-0.0323111
-0.0335457
-0.03453
-0.0353065
-0.0359149
-0.0363875
-0.0367501
-0.0370254
-0.0372313
-0.0373827
-0.0374908
-0.0375645
-0.0376101
-0.0376318
0.0247129
0.0248555
0.025142
0.0255763
0.0261641
0.0269128
0.0278315
0.0289313
0.0302246
0.0317252
0.0334478
0.0354066
0.0376155
0.040086
0.0428246
0.0458321
0.049096
0.0525888
0.0562623
0.0600417
0.0638115
0.0674139
0.0706493
0.0732679
0.075026
0.0756993
0.0750779
0.0729857
0.0693144
0.0640557
0.0573345
0.049405
0.0406038
0.0313256
0.0219734
0.0129172
0.00447132
-0.00314679
-0.00983332
-0.0155816
-0.0204382
-0.0244808
-0.0278041
-0.0304988
-0.0326515
-0.0343544
-0.0356872
-0.0367163
-0.0374967
-0.0380791
-0.0385065
-0.0388133
-0.0390272
-0.0391719
-0.039266
-0.0393243
-0.0393581
-0.0393762
-0.0393847
-0.0393881
0.023189
0.0233345
0.0236272
0.0240718
0.0246751
0.0254464
0.0263973
0.0275415
0.0288955
0.0304778
0.0323087
0.03441
0.0368036
0.0395114
0.0425508
0.0459355
0.0496682
0.053732
0.05809
0.0626732
0.0673635
0.0719806
0.0762794
0.079923
0.0825613
0.0839562
0.0838062
0.081848
0.0778994
0.0719154
0.0640421
0.0546172
0.0441026
0.0330384
0.0219674
0.0113742
0.0016472
-0.0068898
-0.0141732
-0.0202566
-0.0252471
-0.0292712
-0.0324657
-0.0349579
-0.0368691
-0.0383114
-0.0393764
-0.0401401
-0.0406667
-0.041013
-0.0412242
-0.0413361
-0.0413777
-0.0413729
-0.0413399
-0.0412931
-0.0412437
-0.0411997
-0.0411672
-0.0411501
0.0215175
0.0216636
0.0219579
0.0224058
0.0230155
0.0237978
0.0247666
0.0259391
0.0273353
0.0289789
0.0308967
0.0331185
0.0356761
0.0386034
0.0419326
0.0456931
0.0499101
0.054585
0.059701
0.065206
0.0709918
0.0768672
0.0825354
0.0875452
0.0913781
0.0937731
0.0943244
0.0926457
0.0884298
0.0815593
0.0722011
0.0608161
0.0480542
0.0346689
0.0214005
0.0088769
-0.00234145
-0.0118661
-0.0197091
-0.0260301
-0.031028
-0.0349004
-0.0378343
-0.0400059
-0.0415704
-0.0426592
-0.0433762
-0.0438069
-0.0440247
-0.0440894
-0.0440471
-0.0439341
-0.0437794
-0.0436058
-0.0434307
-0.0432675
-0.0431262
-0.0430142
-0.0429368
-0.0428971
0.0196973
0.0198413
0.0201318
0.0205749
0.0211798
0.0219591
0.0229288
0.0241089
0.0255237
0.0272017
0.0291767
0.031487
0.0341755
0.0372902
0.0408811
0.0449984
0.0496941
0.0550006
0.0609328
0.067472
0.074542
0.0819684
0.0894041
0.0962616
0.101475
0.10524
0.106841
0.10571
0.10132
0.0934161
0.0821829
0.0682592
0.05258
0.0362096
0.0201765
0.00528098
-0.00795354
-0.0184856
-0.0267722
-0.0331443
-0.0379479
-0.0414753
-0.0439769
-0.0456801
-0.0467692
-0.047394
-0.0476713
-0.0476957
-0.0475456
-0.047281
-0.046947
-0.0465793
-0.0462047
-0.0458443
-0.045513
-0.0452227
-0.0449817
-0.0447962
-0.0446703
-0.0446066
0.0177299
0.0178688
0.0181494
0.0185784
0.0191658
0.0199256
0.0208758
0.0220391
0.0234433
0.025122
0.0271153
0.0294707
0.0322428
0.0354948
0.0392973
0.0437257
0.0488642
0.0547902
0.0615662
0.069227
0.0777609
0.0870834
0.096841
0.106253
0.109086
0.114827
0.118205
0.118647
0.115262
0.107472
0.0952837
0.0794246
0.0610863
0.0416934
0.0225997
0.00491222
-0.0159512
-0.0273627
-0.0357538
-0.0418584
-0.0461758
-0.0490959
-0.0509454
-0.0519966
-0.0524577
-0.0524933
-0.052231
-0.0517715
-0.0511925
-0.0505504
-0.049888
-0.049237
-0.048621
-0.0480571
-0.0475575
-0.0471311
-0.046784
-0.0465204
-0.0463433
-0.0462541
0.01562
0.0157505
0.0160144
0.016419
0.0169746
0.0176966
0.0186042
0.0197222
0.0210815
0.02272
0.0246837
0.0270285
0.0298206
0.0331389
0.0370761
0.0417362
0.0472403
0.0537224
0.0613134
0.0701299
0.0802527
0.0917852
0.104764
0.110871
0.122752
0.131162
0.136851
0.13895
0.135995
0.126846
0.111368
0.090687
0.0667505
0.0417907
0.0177884
-0.00359853
-0.0203191
-0.0393142
-0.0470938
-0.0524233
-0.0558496
-0.0578301
-0.0587571
-0.0589385
-0.0585982
-0.057909
-0.0570045
-0.0559827
-0.0549143
-0.0538497
-0.0528249
-0.0518659
-0.05099
-0.0502093
-0.0495317
-0.0489624
-0.0485044
-0.0481597
-0.0479293
-0.0478139
0.0133755
0.0134939
0.0137341
0.0141031
0.0146119
0.0152759
0.0161153
0.0171563
0.0184318
0.0199828
0.0218599
0.0241262
0.0268582
0.0301491
0.0341133
0.0388858
0.044628
0.051532
0.0598195
0.0697192
0.0814334
0.0952066
0.112008
0.121177
0.136192
0.145731
0.154192
0.159448
0.158738
0.149811
0.131914
0.106497
0.0764924
0.045271
0.0155344
-0.016477
-0.0345686
-0.0545765
-0.0610142
-0.0650063
-0.0670454
-0.0676857
-0.0673771
-0.0664438
-0.0651156
-0.0635645
-0.0619167
-0.0602575
-0.0586452
-0.0571188
-0.0557041
-0.0544174
-0.0532683
-0.0522618
-0.0514003
-0.0506842
-0.050113
-0.0496857
-0.0494015
-0.0492595
0.0110078
0.0111107
0.0113197
0.0116418
0.0120877
0.0126728
0.0134172
0.0143472
0.0154963
0.0169072
0.0186331
0.0207416
0.0233169
0.0264641
0.0303156
0.035035
0.0408247
0.0479345
0.0566755
0.0674183
0.0805252
0.0962584
0.116494
0.129622
0.150362
0.166555
0.180359
0.190695
0.193075
0.18323
0.159311
0.123797
0.0821542
0.0403331
0.0026124
-0.0348586
-0.052771
-0.0733454
-0.0776103
-0.0796565
-0.0797299
-0.0785814
-0.0766956
-0.0743911
-0.0718903
-0.0693475
-0.0668644
-0.0645035
-0.0623035
-0.0602863
-0.0584629
-0.056837
-0.0554079
-0.0541723
-0.0531255
-0.0522625
-0.0515786
-0.0510695
-0.050732
-0.0505637
0.00853206
0.00861587
0.00878645
0.00905043
0.00941773
0.00990281
0.0105247
0.0113087
0.0122871
0.013502
0.0150065
0.0168693
0.0191781
0.0220446
0.0256129
0.030068
0.0356467
0.0426499
0.051466
0.0626123
0.0766729
0.0939595
0.11723
0.134915
0.161928
0.18583
0.208907
0.228854
0.238566
0.229733
0.197596
0.146524
0.0873725
0.0310225
-0.016145
-0.0594544
-0.0771572
-0.096193
-0.0971601
-0.0963579
-0.0937583
-0.0903279
-0.0865099
-0.0825884
-0.0787506
-0.0751059
-0.0717152
-0.0686071
-0.0657925
-0.0632698
-0.0610311
-0.0590647
-0.0573575
-0.0558962
-0.0546683
-0.0536627
-0.0528699
-0.052282
-0.0518934
-0.0517
0.0059672
0.0060286
0.00615399
0.00634918
0.00662288
0.0069877
0.00746066
0.00806429
0.00882805
0.00979055
0.0110015
0.0125264
0.0144502
0.0168839
0.0199744
0.0239149
0.0289621
0.0354539
0.0438368
0.0547436
0.0690178
0.0871107
0.112546
0.135041
0.168893
0.202701
0.239172
0.2762
0.301715
0.298443
0.253635
0.175402
0.0875976
0.0107642
-0.0465763
-0.0942532
-0.10901
-0.123768
-0.11977
-0.114904
-0.108822
-0.102598
-0.0965141
-0.0907692
-0.0854679
-0.0806466
-0.076308
-0.072435
-0.0690018
-0.0659781
-0.063333
-0.0610373
-0.0590636
-0.057388
-0.0559894
-0.0548503
-0.053956
-0.0532952
-0.0528591
-0.0526425
0.00333544
0.00337152
0.00344576
0.0035628
0.00372949
0.00395598
0.00425588
0.00464772
0.00515576
0.0058124
0.00666027
0.00775603
0.00917537
0.0110193
0.0134242
0.0165751
0.0207259
0.0262227
0.0335372
0.0433606
0.0567382
0.0742954
0.100092
0.126946
0.166531
0.211607
0.266331
0.331721
0.39089
0.406277
0.340046
0.208558
0.0714773
-0.0318238
-0.0967712
-0.143098
-0.149788
-0.155989
-0.144935
-0.134685
-0.124347
-0.114887
-0.106284
-0.0985837
-0.0917577
-0.0857402
-0.0804587
-0.0758393
-0.0718124
-0.0683146
-0.0652901
-0.0626902
-0.060473
-0.0586032
-0.0570511
-0.0557926
-0.0548081
-0.0540823
-0.0536046
-0.0533674
0.000662107
0.000670526
0.000688855
0.000720164
0.000769
0.000842242
0.000949156
0.00110259
0.00131974
0.00162406
0.00204688
0.0026311
0.00343538
0.00453987
0.00605613
0.00813971
0.0110115
0.0149846
0.0204974
0.028212
0.0392359
0.0542785
0.0774573
0.106905
0.148658
0.203578
0.277803
0.38459
0.513945
0.589852
0.482911
0.230794
0.00950374
-0.117993
-0.177167
-0.208772
-0.199654
-0.191441
-0.171273
-0.154552
-0.139428
-0.126486
-0.115265
-0.105602
-0.097287
-0.0901289
-0.0839675
-0.0786639
-0.0741016
-0.0701826
-0.0668251
-0.0639614
-0.061535
-0.0595
-0.0578183
-0.0564596
-0.0553997
-0.0546202
-0.0541078
-0.0538537
-0.00202498
-0.0020458
-0.00208667
-0.00214631
-0.0022229
-0.00231347
-0.00241394
-0.00251835
-0.00261834
-0.00270193
-0.00275239
-0.00274566
-0.00264751
-0.00240872
-0.00195814
-0.00119254
4.27003e-05
0.00197521
0.00493569
0.00943238
0.0164341
0.0265573
0.0431633
0.0715293
0.108071
0.165576
0.247653
0.394488
0.648657
0.933107
0.733103
0.158054
-0.173205
-0.279576
-0.295566
-0.289775
-0.25553
-0.226876
-0.196398
-0.172798
-0.15283
-0.136491
-0.122799
-0.11134
-0.101697
-0.0935449
-0.0866326
-0.0807558
-0.0757522
-0.0714911
-0.067867
-0.0647946
-0.0622048
-0.0600418
-0.0582606
-0.0568257
-0.0557089
-0.0548889
-0.0543507
-0.0540839
-0.00469627
-0.00474701
-0.0048486
-0.00500162
-0.00520729
-0.00546692
-0.00578224
-0.00615495
-0.00658686
-0.0070791
-0.0076322
-0.00824484
-0.00891268
-0.00962655
-0.0103684
-0.011108
-0.011789
-0.0123193
-0.0125549
-0.0122703
-0.0108849
-0.00808445
-0.00217645
0.0200592
0.041086
0.085093
0.142599
0.26492
0.540323
1.45662
1.10253
-0.466509
-0.623314
-0.535007
-0.444108
-0.374716
-0.309431
-0.257171
-0.217035
-0.187263
-0.163092
-0.1439
-0.12819
-0.11531
-0.10464
-0.0957373
-0.0882702
-0.0819784
-0.0766618
-0.0721626
-0.0683562
-0.0651435
-0.0624456
-0.0601993
-0.0583544
-0.0568712
-0.0557187
-0.0548738
-0.0543194
-0.054045
-0.0073213
-0.00740174
-0.00756357
-0.00780936
-0.0081434
-0.00857143
-0.00910118
-0.00974237
-0.0105074
-0.0114114
-0.0124733
-0.0137165
-0.0151698
-0.0168687
-0.018857
-0.0211898
-0.0239313
-0.0271619
-0.0309816
-0.0355432
-0.0408775
-0.0471461
-0.0551402
-0.0443135
-0.0480501
-0.0353803
-0.0393298
-0.0611123
-0.136411
-3.17348
-1.29994
-0.806791
-0.578523
-0.441066
-0.349422
-0.27635
-0.229625
-0.195725
-0.168791
-0.147781
-0.130817
-0.117088
-0.105822
-0.0964991
-0.0887324
-0.0822248
-0.0767517
-0.0721384
-0.0682485
-0.0649746
-0.0622318
-0.0599525
-0.0580835
-0.056583
-0.0554183
-0.0545649
-0.0540056
-0.0537287
-0.00986973
-0.00997866
-0.0101983
-0.010533
-0.0109902
-0.0115798
-0.0123153
-0.0132141
-0.014299
-0.0155987
-0.01715
-0.0190007
-0.0212121
-0.0238647
-0.0270636
-0.030952
-0.0357182
-0.0416248
-0.0490358
-0.0584954
-0.070775
-0.0865193
-0.109416
-0.113655
-0.146283
-0.17425
-0.253661
-0.407467
-0.674131
-0.982124
-2.51484
-1.42415
-0.907532
-0.637262
-0.465852
-0.364304
-0.279615
-0.231366
-0.196463
-0.16886
-0.147456
-0.130243
-0.116386
-0.105049
-0.0956977
-0.0879272
-0.0814301
-0.075976
-0.0713857
-0.0675203
-0.0642705
-0.0615503
-0.0592917
-0.0574408
-0.0559556
-0.0548033
-0.0539594
-0.0534062
-0.0531326
-0.0123123
-0.0124476
-0.0127206
-0.0131375
-0.0137082
-0.0144464
-0.015371
-0.0165061
-0.0178834
-0.0195436
-0.0215397
-0.0239402
-0.0268352
-0.0303437
-0.0346246
-0.0398967
-0.0464553
-0.0547197
-0.0652889
-0.0790128
-0.0973892
-0.121302
-0.157217
-0.177074
-0.235613
-0.302505
-0.436406
-0.693342
-1.1675
-1.5601
-1.79119
-1.58906
-1.16277
-0.82549
-0.605883
-0.442802
-0.350072
-0.265533
-0.221383
-0.188904
-0.16295
-0.142708
-0.126335
-0.113121
-0.102271
-0.0933028
-0.0858367
-0.0795844
-0.0743297
-0.0699028
-0.0661717
-0.0630327
-0.0604036
-0.0582197
-0.0564293
-0.0549923
-0.0538771
-0.0530602
-0.0525247
-0.0522599
-0.014622
-0.0147805
-0.0151008
-0.0155902
-0.0162609
-0.0171297
-0.0182194
-0.0195597
-0.0211894
-0.0231586
-0.0255323
-0.0283947
-0.0318567
-0.0360656
-0.0412169
-0.0475815
-0.0555266
-0.0655687
-0.0784707
-0.0952014
-0.117846
-0.147052
-0.191483
-0.224209
-0.299914
-0.396291
-0.550141
-0.839089
-1.05212
-1.62341
-1.64041
-1.16473
-0.870163
-0.662498
-0.512418
-0.382427
-0.310854
-0.23664
-0.201112
-0.173852
-0.15155
-0.133851
-0.119304
-0.10744
-0.0975947
-0.089393
-0.0825204
-0.0767341
-0.0718494
-0.0677189
-0.0642267
-0.0612811
-0.0588086
-0.0567511
-0.055062
-0.0537045
-0.0526501
-0.0518772
-0.0513703
-0.0511196
-0.0167745
-0.0169527
-0.0173126
-0.0178628
-0.0186167
-0.0195935
-0.0208187
-0.0223257
-0.0241582
-0.0263718
-0.0290389
-0.0322528
-0.0361351
-0.0408471
-0.0466007
-0.0536863
-0.0624977
-0.0735664
-0.0877242
-0.105817
-0.130299
-0.160969
-0.207867
-0.247591
-0.326721
-0.437395
-0.608312
-1.07748
-1.5355
-1.22267
-0.881317
-0.707046
-0.569643
-0.473325
-0.38988
-0.301185
-0.255548
-0.198074
-0.173621
-0.153185
-0.135861
-0.121664
-0.109672
-0.0997011
-0.0912695
-0.0841483
-0.078111
-0.0729784
-0.0686111
-0.0648931
-0.0617323
-0.0590535
-0.0567963
-0.0549119
-0.0533608
-0.0521115
-0.0511396
-0.0504261
-0.0499579
-0.0497263
-0.0187497
-0.0189433
-0.0193343
-0.0199317
-0.0207499
-0.0218092
-0.0231365
-0.024767
-0.0267461
-0.0291319
-0.0319986
-0.0354414
-0.0395825
-0.0445819
-0.0506471
-0.0580535
-0.0671774
-0.0784771
-0.0927647
-0.110535
-0.134392
-0.162723
-0.206132
-0.245354
-0.313337
-0.41397
-0.550871
-0.882046
-1.34605
-0.70314
-0.197157
-0.263767
-0.298279
-0.289993
-0.263619
-0.215144
-0.194202
-0.155581
-0.142528
-0.129275
-0.117458
-0.107204
-0.0981632
-0.0904077
-0.0836537
-0.0778277
-0.072799
-0.0684602
-0.0647238
-0.0615101
-0.058755
-0.0564035
-0.0544104
-0.0527385
-0.0513566
-0.0502401
-0.0493692
-0.0487288
-0.0483079
-0.0480997
-0.0205315
-0.020736
-0.0211489
-0.0217791
-0.0226415
-0.0237562
-0.0251504
-0.026859
-0.0289269
-0.0314105
-0.0343812
-0.0379295
-0.0421689
-0.0472453
-0.0533436
-0.0606953
-0.069626
-0.0804529
-0.093909
-0.109982
-0.131298
-0.154615
-0.19038
-0.223082
-0.270334
-0.339286
-0.395586
-0.469711
-0.471181
-0.0865381
0.19692
0.0127447
-0.0942209
-0.140403
-0.153251
-0.136023
-0.134954
-0.114092
-0.111098
-0.104405
-0.097927
-0.0915806
-0.0855654
-0.0801262
-0.0751594
-0.0707345
-0.0668111
-0.0633514
-0.0603194
-0.0576728
-0.0553764
-0.0533966
-0.0517045
-0.0502752
-0.0490872
-0.0481229
-0.0473681
-0.0468115
-0.046445
-0.0462637
-0.0221086
-0.0223195
-0.0227448
-0.0233934
-0.0242796
-0.0254228
-0.026849
-0.0285911
-0.0306912
-0.0332012
-0.0361858
-0.0397257
-0.0439184
-0.0488873
-0.0547813
-0.0617711
-0.0701097
-0.0799414
-0.0919274
-0.105472
-0.123222
-0.140494
-0.167047
-0.19054
-0.215759
-0.249549
-0.244255
-0.201078
-0.0382873
0.161504
0.282765
0.14169
0.0257756
-0.0380537
-0.0687158
-0.0717409
-0.0834974
-0.0768089
-0.0817055
-0.0804083
-0.0786334
-0.0758032
-0.0726187
-0.0694014
-0.0661959
-0.063179
-0.0603848
-0.0578353
-0.055541
-0.0534942
-0.0516869
-0.0501062
-0.0487389
-0.0475726
-0.0465955
-0.0457972
-0.0451693
-0.0447045
-0.0443977
-0.0442458
-0.0234744
-0.0236872
-0.0241159
-0.0247689
-0.0256595
-0.0268056
-0.0282308
-0.0299649
-0.0320454
-0.0345177
-0.0374369
-0.0408709
-0.0448976
-0.0496123
-0.0551199
-0.0615275
-0.0690275
-0.0775764
-0.0878006
-0.0985612
-0.112562
-0.124139
-0.142143
-0.156815
-0.164542
-0.172606
-0.140453
-0.0717719
0.0718998
0.194318
0.247475
0.168574
0.081007
0.0220706
-0.0113049
-0.0238393
-0.0423095
-0.0455072
-0.0558088
-0.0585213
-0.0605628
-0.0606584
-0.0599406
-0.0587077
-0.0571286
-0.0554472
-0.0537461
-0.0520912
-0.0505316
-0.0490893
-0.04778
-0.0466088
-0.0455773
-0.0446844
-0.0439276
-0.0433034
-0.0428089
-0.0424408
-0.042197
-0.0420761
-0.0246269
-0.0248374
-0.0252611
-0.0259057
-0.0267829
-0.0279084
-0.0293031
-0.0309928
-0.0330089
-0.0353895
-0.0381791
-0.0414301
-0.0452003
-0.0495529
-0.0545603
-0.060265
-0.0668192
-0.0740014
-0.0824505
-0.0905884
-0.101218
-0.108221
-0.119473
-0.127171
-0.12382
-0.117608
-0.0799968
-0.0174573
0.0822819
0.16069
0.18827
0.150924
0.0964559
0.0525962
0.0240915
0.00906561
-0.0113962
-0.0205723
-0.0340243
-0.0394106
-0.044305
-0.0466581
-0.0479733
-0.0484193
-0.0482651
-0.0477865
-0.0470942
-0.0462817
-0.0454247
-0.0445678
-0.0437464
-0.0429803
-0.0422836
-0.0416653
-0.0411307
-0.0406831
-0.0403243
-0.040055
-0.0398755
-0.0397864
-0.0255682
-0.0257727
-0.0261841
-0.0268088
-0.027657
-0.028742
-0.0300811
-0.0316957
-0.0336107
-0.0358569
-0.0384683
-0.0414794
-0.0449304
-0.0488585
-0.0533116
-0.0582721
-0.0638747
-0.0697462
-0.0765824
-0.0824842
-0.0903644
-0.0940668
-0.100633
-0.103611
-0.0947976
-0.0827028
-0.0476762
0.00124011
0.0683724
0.123582
0.125797
0.127702
0.0922607
0.0647308
0.0445055
0.0299933
0.0105451
-0.00141915
-0.0163127
-0.0232885
-0.0301311
-0.0340912
-0.0369916
-0.0387925
-0.0398364
-0.0403958
-0.0405952
-0.0405458
-0.040338
-0.0400294
-0.0396704
-0.0392924
-0.0389194
-0.0385683
-0.0382517
-0.037978
-0.0377534
-0.0375819
-0.0374664
-0.037409
-0.0263045
-0.0264999
-0.0268926
-0.0274879
-0.0282939
-0.0293216
-0.0305845
-0.0320997
-0.0338861
-0.0359666
-0.0383633
-0.0410982
-0.0441969
-0.0476741
-0.0515609
-0.055789
-0.0604985
-0.065196
-0.0706647
-0.0747999
-0.0805837
-0.0821097
-0.08582
-0.0860594
-0.0756007
-0.0626298
-0.032229
0.00635329
0.050257
0.0760168
0.097781
0.0854856
0.079882
0.0694698
0.0547243
0.0425077
0.0254899
0.0128932
-0.00227929
-0.0100331
-0.0180828
-0.0230743
-0.0271396
-0.0299792
-0.0319939
-0.0334189
-0.0343803
-0.0349976
-0.0353698
-0.0355601
-0.0356271
-0.0356103
-0.0355416
-0.035444
-0.0353352
-0.0352283
-0.0351331
-0.0350563
-0.0350027
-0.034976
-0.0268449
-0.0270288
-0.0273977
-0.0279557
-0.0287092
-0.0296664
-0.0308377
-0.0322358
-0.0338737
-0.0357657
-0.0379258
-0.0403664
-0.0431009
-0.0461245
-0.049461
-0.0530008
-0.0569092
-0.0606008
-0.0649599
-0.0677798
-0.0720631
-0.0723086
-0.0745473
-0.0735106
-0.0635104
-0.0519506
-0.0277374
0.00527311
0.0277028
0.0878585
0.0937171
0.0660346
0.0851311
0.069761
0.0581702
0.0498448
0.035399
0.0233409
0.00860199
0.000655221
-0.00803052
-0.0136056
-0.0184678
-0.0220547
-0.0248238
-0.0269465
-0.0285413
-0.0297253
-0.0306002
-0.0312311
-0.0316806
-0.0319916
-0.0322017
-0.0323382
-0.0324229
-0.0324722
-0.0324986
-0.0325111
-0.0325162
-0.0325186
-0.0272013
-0.0273716
-0.0277128
-0.0282276
-0.0289208
-0.0297982
-0.0308674
-0.0321359
-0.0336116
-0.0353026
-0.0372166
-0.0393572
-0.0417292
-0.0443122
-0.047131
-0.0500436
-0.0532522
-0.0561058
-0.0595921
-0.061483
-0.0647633
-0.0643744
-0.066059
-0.064717
-0.0561311
-0.0462024
-0.0283838
-0.0128746
0.0564304
0.0475788
0.00480408
0.106389
0.0882169
0.0638171
0.0600793
0.0541792
0.0418601
0.030835
0.0168914
0.00914548
0.000244103
-0.0055866
-0.0109656
-0.0150561
-0.0183823
-0.0210376
-0.0231398
-0.0247919
-0.0260909
-0.0271
-0.0278835
-0.0284848
-0.0289443
-0.029292
-0.0295525
-0.0297445
-0.0298827
-0.0299775
-0.0300368
-0.030066
-0.0273876
-0.0275429
-0.0278535