/*--------------------------------*- C++ -*----------------------------------*\
  =========                 |
  \\      /  F ield         | OpenFOAM: The Open Source CFD Toolbox
   \\    /   O peration     | Website:  https://openfoam.org
    \\  /    A nd           | Version:  12
     \\/     M anipulation  |
\*---------------------------------------------------------------------------*/
FoamFile
{
    format      ascii;
    class       surfaceScalarField;
    location    "80";
    object      phi;
}
// * * * * * * * * * * * * * * * * * * * * * * * * * * * * * * * * * * * * * //

dimensions      [0 3 -1 0 0 0 0];

internalField   nonuniform List<scalar> 
32440
(
-8.87537e-08
0.0399881
1.8258e-06
0.0399881
-2.53651e-07
0.0399901
1.67592e-06
0.0399881
-3.82394e-07
0.0399901
1.57436e-06
0.039998
1.54928e-06
0.04001
1.54533e-06
0.04001
3.5656e-06
0.04001
5.61287e-06
0.04001
7.68986e-06
0.0400099
3.79902e-06
0.0400039
3.94236e-06
0.0399999
4.12184e-06
0.0399998
4.33875e-06
0.0399998
4.59373e-06
0.0399997
4.8868e-06
0.0399997
5.21708e-06
0.0399997
5.58287e-06
0.0399996
5.98146e-06
0.0399996
6.40912e-06
0.0399996
6.86117e-06
0.0399995
7.33188e-06
0.0399995
7.81461e-06
0.0399995
8.302e-06
0.0399995
8.78607e-06
0.0399995
9.25853e-06
0.0399995
9.71033e-06
0.0399995
8.53451e-06
0.0400012
3.26201e-06
0.0400053
2.06889e-06
0.0400012
2.16523e-06
0.0399999
2.40776e-06
0.0399998
2.59298e-06
0.0399998
3.71877e-06
0.0399989
3.78449e-06
0.0399999
3.79061e-06
0.04
3.73904e-06
0.0400001
3.63258e-06
0.0400001
3.47501e-06
0.0400002
3.27071e-06
0.0400002
3.02456e-06
0.0400002
2.74162e-06
0.0400003
2.42712e-06
0.0400003
2.086e-06
0.0400003
1.72313e-06
0.0400004
1.34297e-06
0.0400004
9.50094e-07
0.0400004
5.4686e-07
0.0400004
1.3695e-07
0.0400004
-2.77207e-07
0.0400004
-2.69353e-06
0.0400024
-9.10954e-06
0.0400064
-3.5258e-06
0.0400064
5.83643e-08
0.0400084
-3.56154e-07
0.0400104
1.23123e-06
0.0399984
8.2016e-07
0.0399884
4.10285e-07
0.0399904
0.0399884
-3.63287e-07
0.0399885
-7.15087e-07
0.0399884
-1.04492e-06
0.0399904
-1.34183e-06
0.0399884
4.05276e-07
0.0399883
2.20738e-06
0.0399962
4.07566e-06
0.0400082
4.02124e-06
0.0400101
6.05519e-06
0.0400079
1.0188e-05
0.0400058
1.44301e-05
0.0400057
6.79097e-06
0.0400115
3.27761e-06
0.0400034
3.89764e-06
0.0399992
4.6562e-06
0.039999
5.55638e-06
0.0399988
6.59862e-06
0.0399987
7.7804e-06
0.0399985
9.09595e-06
0.0399983
1.0536e-05
0.0399982
1.20866e-05
0.039998
1.3732e-05
0.0399979
1.54512e-05
0.0399978
1.722e-05
0.0399977
1.90117e-05
0.0399977
2.09969e-05
0.0399975
2.27452e-05
0.0399978
2.4026e-05
0.0399983
2.42077e-05
0.040001
1.99554e-05
0.0400095
1.97616e-05
0.0400014
2.08849e-05
0.0399988
2.18132e-05
0.0399988
2.25327e-05
0.0399991
2.1835e-05
0.0399996
2.21186e-05
0.0399997
2.21812e-05
0.0399999
2.20308e-05
0.0400002
2.16776e-05
0.0400005
2.11348e-05
0.0400007
2.04185e-05
0.0400009
1.95462e-05
0.0400011
1.85367e-05
0.0400013
1.74102e-05
0.0400014
1.81823e-05
0.0399996
1.6872e-05
0.0400017
1.5496e-05
0.0400018
1.40684e-05
0.0400018
1.26038e-05
0.0400019
1.11137e-05
0.0400019
7.60523e-06
0.0400039
2.08887e-06
0.0400079
-1.43018e-06
0.0400099
-9.51757e-07
0.0400059
-4.70909e-07
0.0400079
1.46471e-08
0.0400099
4.50558e-06
0.0399939
1.00107e-06
0.0399919
1.50005e-06
0.0399899
0.0399899
-6.92193e-07
0.0399891
-1.36424e-06
0.0399891
2.25329e-09
0.039989
-5.73552e-07
0.0399889
-3.07216e-06
0.0399908
2.5263e-06
0.0399906
2.24062e-06
0.0400084
4.0916e-06
0.0400082
6.09793e-06
0.0400059
8.27956e-06
0.0400036
1.06539e-05
0.0400033
3.2404e-06
0.0400189
2.04994e-06
0.0400046
3.09701e-06
0.0399982
4.39186e-06
0.0399977
5.94049e-06
0.0399973
7.74466e-06
0.0399969
9.80072e-06
0.0399964
1.60989e-05
0.039992
1.46246e-05
0.0399996
1.73535e-05
0.0399953
2.0257e-05
0.039995
2.32989e-05
0.0399948
2.64367e-05
0.0399946
2.96225e-05
0.0399945
3.28041e-05
0.0399943
3.59268e-05
0.0399947
3.89326e-05
0.0399953
4.01707e-05
0.0399998
3.71008e-05
0.0400126
3.79359e-05
0.0400006
3.977e-05
0.0399969
4.14588e-05
0.0399971
4.27772e-05
0.0399978
4.47095e-05
0.0399976
4.5247e-05
0.0399991
4.53961e-05
0.0399998
4.51685e-05
0.0400004
4.4576e-05
0.0400011
4.36454e-05
0.0400016
4.24052e-05
0.0400022
4.08868e-05
0.0400026
3.9126e-05
0.0400031
3.71497e-05
0.0400034
3.29969e-05
0.0400037
3.06977e-05
0.040004
2.82833e-05
0.0400042
2.77763e-05
0.0400023
2.52017e-05
0.0400044
2.05803e-05
0.0400065
1.59291e-05
0.0400086
3.26791e-06
0.0400206
6.59125e-06
0.0400066
5.91367e-06
0.0400066
5.24186e-06
0.0400086
6.57815e-06
0.0400086
7.92422e-06
0.0399926
5.27798e-06
0.0399946
2.63774e-06
0.0399926
0.0399925
-1.06326e-06
0.0399902
-2.09762e-06
0.0399901
-3.07711e-06
0.03999
-3.97423e-06
0.0399898
-2.76104e-06
0.0399896
-3.40949e-06
0.0399913
2.10891e-06
0.0400029
3.82196e-06
0.0400065
5.75936e-06
0.040004
5.94789e-06
0.0400035
6.41609e-06
0.0400028
3.19014e-06
0.0400222
2.88203e-07
0.0400075
-2.67929e-07
0.0399987
1.5369e-06
0.0399959
5.71316e-06
0.0399931
1.02647e-05
0.0399923
2.3187e-05
0.0399835
3.24702e-05
0.0399827
2.40907e-05
0.040008
2.20177e-05
0.0399974
2.62075e-05
0.0399908
3.06089e-05
0.0399904
3.51585e-05
0.0399901
3.97898e-05
0.0399899
4.44249e-05
0.0399897
4.8983e-05
0.0399901
5.31838e-05
0.0399911
5.59391e-05
0.039997
5.40985e-05
0.0400144
5.60294e-05
0.0399986
5.8829e-05
0.0399941
6.15227e-05
0.0399944
6.34767e-05
0.0399958
6.36672e-05
0.0399974
6.44843e-05
0.0399983
6.47316e-05
0.0399995
6.44261e-05
0.0400007
6.55925e-05
0.0399999
6.42669e-05
0.040003
6.24914e-05
0.0400039
6.03164e-05
0.0400048
5.77806e-05
0.0400056
5.49431e-05
0.0400063
5.18526e-05
0.0400068
4.85488e-05
0.0400073
4.50759e-05
0.0400076
3.94789e-05
0.0400079
3.77851e-05
0.0400061
3.40256e-05
0.0400103
2.0228e-05
0.0400224
1.64123e-05
0.0400244
1.25782e-05
0.0400104
1.07462e-05
0.0400084
8.92447e-06
0.0400104
1.31177e-05
0.0400044
9.32341e-06
0.0399964
7.54163e-06
0.0399963
3.7686e-06
0.0399963
0.0399963
-1.47992e-06
0.0399917
-2.92223e-06
0.0399916
-4.29372e-06
0.0399914
-5.55842e-06
0.0399911
-6.68104e-06
0.0399907
-5.62387e-06
0.0399902
1.64966e-06
0.0399957
1.17726e-06
0.040007
9.96175e-07
0.0400042
3.14406e-06
0.0400013
5.65764e-06
0.0400003
6.57337e-06
0.0400213
-8.00635e-08
0.0400141
-2.78112e-07
0.0399989
2.00388e-06
0.0399936
4.78159e-06
0.0399903
1.40609e-05
0.039983
3.18396e-05
0.0399657
3.01089e-05
0.0399845
2.4837e-05
0.0400133
2.59836e-05
0.0399962
3.14925e-05
0.0399853
3.72986e-05
0.0399846
4.33211e-05
0.039984
4.94635e-05
0.0399838
5.56245e-05
0.0399836
6.16951e-05
0.039984
6.75601e-05
0.0399852
7.15192e-05
0.039993
7.09714e-05
0.040015
7.40803e-05
0.0399955
7.80946e-05
0.0399901
8.1243e-05
0.0399913
8.4076e-05
0.039993
8.67516e-05
0.0399948
8.7862e-05
0.0399972
8.82127e-05
0.0399992
8.78218e-05
0.0400011
8.47394e-05
0.040003
8.29998e-05
0.0400047
8.0666e-05
0.0400063
7.98025e-05
0.0400057
7.64733e-05
0.0400089
7.27506e-05
0.04001
6.86879e-05
0.0400109
6.43579e-05
0.0400116
5.98177e-05
0.0400122
5.51082e-05
0.0400126
4.8286e-05
0.040013
3.5384e-05
0.0400232
1.84501e-05
0.0400393
2.54666e-05
0.0400174
2.24778e-05
0.0400134
1.74991e-05
0.0400134
1.65374e-05
0.0400114
1.95967e-05
0.0400013
1.46767e-05
0.0400013
9.77347e-06
0.0400012
4.88322e-06
0.0400012
0.0400012
-1.94888e-06
0.0399936
-1.85124e-06
0.0399915
-3.66766e-06
0.0399932
-5.35422e-06
0.0399928
-6.86677e-06
0.0399922
-8.15984e-06
0.0399915
-5.18756e-06
0.0399927
9.65834e-08
0.0400017
-2.60212e-07
0.0400045
-2.10393e-07
0.0400013
2.2911e-06
0.0399978
2.12887e-05
0.0400023
4.83961e-06
0.0400306
-1.04338e-06
0.0400048
-3.22506e-07
0.0399929
5.02498e-06
0.039985
1.70095e-05
0.039971
2.56352e-05
0.0399571
2.68915e-05
0.0399832
2.47476e-05
0.0400154
2.91478e-05
0.0399918
3.60263e-05
0.0399784
4.33002e-05
0.0399773
5.08667e-05
0.0399765
5.86044e-05
0.039976
6.63871e-05
0.0399758
7.4272e-05
0.0399761
8.1318e-05
0.0399781
8.69706e-05
0.0399874
8.78227e-05
0.0400141
9.21927e-05
0.0399911
9.71089e-05
0.0399852
0.000101574
0.0399868
0.000104717
0.0399898
0.000106108
0.0399934
0.000107531
0.0399958
0.000109984
0.0399967
0.000109502
0.0400016
0.000108138
0.0400043
0.000105952
0.0400069
0.000103028
0.0400092
9.74305e-05
0.0400113
9.32683e-05
0.0400131
9.06075e-05
0.0400126
8.55496e-05
0.0400159
8.01591e-05
0.040017
7.45135e-05
0.0400178
6.86757e-05
0.0400185
6.07016e-05
0.0400209
4.46475e-05
0.0400392
4.05505e-05
0.0400434
3.64081e-05
0.0400215
3.02706e-05
0.0400196
2.61526e-05
0.0400175
3.00666e-05
0.0400075
2.40052e-05
0.0400074
1.79734e-05
0.0400073
1.19666e-05
0.0400073
5.97805e-06
0.0400072
0.0400072
-2.47844e-06
0.0399961
-4.90199e-06
0.0399939
-7.2248e-06
0.0399955
-9.39551e-06
0.039995
-1.1362e-05
0.0399942
-1.30703e-05
0.0399932
-1.24658e-05
0.0399921
-5.49126e-06
0.0399947
-4.09183e-06
0.0400031
-2.20844e-06
0.0399994
-1.78369e-06
0.0399974
3.23742e-06
0.0399972
6.92018e-06
0.0400269
-4.70042e-06
0.0400164
-1.58982e-06
0.0399898
8.2878e-06
0.0399751
3.29456e-05
0.0399464
2.2416e-05
0.0399676
2.46667e-05
0.039981
2.56729e-05
0.0400144
3.13688e-05
0.0399861
3.96773e-05
0.0399701
4.84994e-05
0.0399685
5.7707e-05
0.0399673
6.71618e-05
0.0399666
7.68921e-05
0.039966
8.61246e-05
0.0399669
9.52714e-05
0.039969
0.000102361
0.0399803
0.000104741
0.0400118
0.000110473
0.0399854
0.000116789
0.0399789
0.000121846
0.0399818
0.000126169
0.0399855
0.000129907
0.0399896
0.000131644
0.039994
0.000130191
0.0399982
0.000129591
0.0400022
0.00012791
0.040006
0.00012723
0.0400076
0.000123649
0.0400128
0.000119272
0.0400157
0.000114209
0.0400181
0.000106571
0.0400203
0.000102448
0.0400201
9.59569e-05
0.0400235
8.91697e-05
0.0400246
8.21686e-05
0.0400255
6.30267e-05
0.0400401
3.98274e-05
0.0400624
5.05326e-05
0.0400327
4.52245e-05
0.0400268
3.99434e-05
0.0400249
4.06972e-05
0.0400168
3.34885e-05
0.0400147
2.63234e-05
0.0400146
1.91999e-05
0.0400144
1.21112e-05
0.0400143
7.04875e-06
0.0400123
0.0400142
-1.0763e-06
0.0399972
-6.09056e-06
0.0399989
-8.98994e-06
0.0399984
-9.71592e-06
0.0399957
-1.22097e-05
0.0399967
-1.44088e-05
0.0399954
-1.62485e-05
0.0399939
-1.36654e-05
0.0399921
-8.58964e-06
0.0399981
-8.95309e-06
0.0399997
-8.68503e-06
0.0399971
-3.72268e-06
0.0399923
2.20033e-05
0.0400012
2.59427e-06
0.0400358
-7.95648e-06
0.0400004
4.06391e-07
0.0399668
1.37132e-05
0.0399331
1.80008e-05
0.0399633
2.32511e-05
0.0399757
2.54381e-05
0.0400122
3.24795e-05
0.0399791
4.22962e-05
0.0399603
5.27652e-05
0.039958
6.37454e-05
0.0399563
7.50527e-05
0.0399553
8.64844e-05
0.0399546
9.78314e-05
0.0399556
0.000108868
0.039958
0.00011756
0.0399716
0.000121809
0.0400075
0.000129065
0.0399782
0.00013648
0.0399715
0.000142822
0.0399754
0.000147792
0.0399806
0.000152314
0.0399851
0.000154369
0.039992
0.000155002
0.0399976
0.000154245
0.040003
0.000152192
0.0400081
0.000146949
0.0400128
0.000144643
0.0400151
0.00013941
0.0400209
0.000133365
0.0400242
0.000126662
0.040027
0.000119428
0.0400273
0.000111765
0.0400312
0.00010378
0.0400326
9.15821e-05
0.0400377
7.12385e-05
0.0400604
6.48319e-05
0.0400688
6.03517e-05
0.0400372
5.38881e-05
0.0400333
5.54673e-05
0.0400233
4.90989e-05
0.0400232
4.07876e-05
0.040023
3.25383e-05
0.0400228
2.43464e-05
0.0400226
1.62015e-05
0.0400225
8.09068e-06
0.0400204
0.0400223
-3.75218e-06
0.0400009
-7.43362e-06
0.0400026
-8.98761e-06
0.04
-1.4351e-05
0.0400011
-1.54546e-05
0.0399978
-1.82301e-05
0.0399982
-2.06041e-05
0.0399963
-2.25013e-05
0.039994
-1.58405e-05
0.0399914
-1.4545e-05
0.0399984
-1.45305e-05
0.0399971
-1.37112e-05
0.0399915
-6.0077e-06
0.0399935
-1.13119e-05
0.0400411
-9.60378e-06
0.0399987
5.17819e-06
0.039952
7.09886e-06
0.0399312
1.21878e-05
0.0399583
2.04397e-05
0.0399675
2.38381e-05
0.0400088
3.22914e-05
0.0399706
4.3706e-05
0.0399489
5.595e-05
0.0399458
6.88479e-05
0.0399434
8.21838e-05
0.0399419
9.57268e-05
0.0399411
0.0001092
0.0399421
0.000122121
0.039945
0.000133224
0.0399605
0.000139164
0.0400016
0.000148101
0.0399692
0.00015698
0.0399626
0.000164719
0.0399677
0.000170587
0.0399747
0.000173539
0.0399822
0.000175931
0.0399896
0.000176604
0.0399969
0.000177634
0.0400019
0.000175133
0.0400106
0.000171247
0.0400167
0.000164104
0.0400222
0.0001599
0.0400251
0.000152795
0.0400313
0.000144938
0.0400348
0.000134487
0.0400377
0.000127578
0.0400381
0.000116354
0.0400438
9.28966e-05
0.0400611
6.3374e-05
0.0400899
7.96881e-05
0.0400525
7.19961e-05
0.0400449
7.23764e-05
0.0400329
6.28112e-05
0.0400328
5.33275e-05
0.0400326
4.39318e-05
0.0400324
3.46222e-05
0.0400321
2.73922e-05
0.0400299
1.82226e-05
0.0400317
7.09552e-06
0.0400315
0.0400294
-4.51226e-06
0.0400055
-6.94556e-06
0.040005
-1.32432e-05
0.0400063
-1.53312e-05
0.0400031
-2.1139e-05
0.0400036
-2.45871e-05
0.0400017
-2.55941e-05
0.0399973
-2.80759e-05
0.0399965
-2.99408e-05
0.0399933
-2.10934e-05
0.0399896
-1.94404e-05
0.0399955
-2.08773e-05
0.0399929
-1.73045e-05
0.0399899
-4.61476e-06
0.0400284
-4.73235e-06
0.0399988
2.03804e-05
0.0399269
4.87764e-06
0.0399467
8.74175e-06
0.0399544
1.40002e-05
0.0399622
2.26396e-05
0.0400002
3.25716e-05
0.0399607
4.36953e-05
0.0399378
5.78618e-05
0.0399316
7.28612e-05
0.0399284
8.84548e-05
0.0399263
0.000104335
0.0399252
0.000120393
0.039926
0.000135688
0.0399298
0.000148857
0.0399473
0.000156912
0.0399935
0.00016795
0.0399582
0.000178474
0.0399521
0.000187143
0.039959
0.000194219
0.0399676
0.000199821
0.0399766
0.000202535
0.0399869
0.00020321
0.0399962
0.000199947
0.0400052
0.000198893
0.0400116
0.000194225
0.0400214
0.000188146
0.0400283
0.000178843
0.0400344
0.000172523
0.0400376
0.000163395
0.040044
0.000153632
0.0400475
0.000141402
0.0400503
0.000128834
0.0400564
0.000108072
0.0400819
9.72378e-05
0.0401008
9.23048e-05
0.0400575
9.14321e-05
0.0400457
8.06292e-05
0.0400437
6.99299e-05
0.0400435
5.93504e-05
0.0400432
4.88937e-05
0.0400428
4.05558e-05
0.0400405
2.83154e-05
0.0400421
2.01617e-05
0.0400398
1.00625e-05
0.0400416
0.0400395
-5.36384e-06
0.0400108
-1.06428e-05
0.0400103
-1.37754e-05
0.0400094
-2.06887e-05
0.0400101
-2.32984e-05
0.0400062
-2.75271e-05
0.0400059
-3.12801e-05
0.0400011
-3.44636e-05
0.0399997
-3.69748e-05
0.0399958
-3.87052e-05
0.0399913
-2.95432e-05
0.0399863
-2.73679e-05
0.0399907
-2.40722e-05
0.0399866
1.44601e-05
0.0399899
-5.54097e-06
0.0400188
-8.14913e-06
0.0399295
-7.17912e-06
0.0399457
-5.9141e-07
0.0399478
1.16527e-05
0.03995
2.75578e-05
0.0399843
2.9065e-05
0.0399592
4.20232e-05
0.0399248
5.82796e-05
0.0399153
7.56122e-05
0.0399111
9.37127e-05
0.0399082
0.000112248
0.0399066
0.000130813
0.0399075
0.000148786
0.0399118
0.000164757
0.0399314
0.000175246
0.039983
0.000188253
0.0399452
0.000200608
0.0399397
0.000211176
0.0399485
0.000218949
0.0399598
0.000223434
0.0399721
0.000226459
0.0399838
0.000229064
0.0399936
0.000227396
0.0400069
0.000221649
0.0400174
0.000218049
0.040025
0.000210841
0.0400355
0.000202279
0.040043
0.000192619
0.0400473
0.000182076
0.0400545
0.000170872
0.0400587
0.0001552
0.040066
0.000123222
0.0400884
9.91179e-05
0.040106
0.000112896
0.040087
0.000110689
0.0400597
0.000100578
0.0400559
8.85988e-05
0.0400557
7.67761e-05
0.0400554
6.71249e-05
0.0400529
5.56335e-05
0.0400543
4.22984e-05
0.0400538
3.30991e-05
0.0400513
1.9999e-05
0.0400529
1.09776e-05
0.0400506
0.0400505
-6.3125e-06
0.0400171
-1.25347e-05
0.0400165
-1.86058e-05
0.0400155
-2.24456e-05
0.0400139
-2.99738e-05
0.0400137
-3.3096e-05
0.040009
-3.97187e-05
0.0400077
-4.17315e-05
0.0400017
-4.50291e-05
0.0399991
-4.74804e-05
0.0399938
-4.89573e-05
0.0399878
-3.93221e-05
0.0399811
-3.64278e-05
0.0399837
-2.61428e-05
0.0399796
-1.42594e-05
0.0400069
-2.47044e-05
0.0399399
-1.93569e-05
0.0399403
-8.11615e-06
0.0399366
9.0829e-06
0.0399328
5.02339e-05
0.0399431
3.74224e-05
0.039972
4.03825e-05
0.0399218
5.6946e-05
0.0398988
7.68676e-05
0.0398911
9.78069e-05
0.0398873
0.000119547
0.0398849
0.000141007
0.039886
0.000162293
0.0398905
0.000181063
0.0399126
0.000194333
0.0399697
0.00020983
0.0399297
0.000224519
0.039925
0.000236341
0.0399366
0.00024573
0.0399504
0.000252749
0.0399651
0.000256021
0.0399806
0.00025445
0.0399952
0.000254239
0.0400071
0.000249612
0.040022
0.000240872
0.0400337
0.000234334
0.0400421
0.000224304
0.040053
0.000211081
0.0400605
0.000200952
0.0400646
0.000186164
0.0400735
0.000160918
0.0400912
0.000123482
0.0401258
0.000127864
0.0401016
0.000134242
0.0400806
0.000122726
0.0400712
0.000109372
0.0400692
9.62143e-05
0.0400689
8.32891e-05
0.0400683
7.05876e-05
0.0400656
5.81043e-05
0.0400668
4.78234e-05
0.0400641
3.57081e-05
0.0400634
2.37247e-05
0.0400649
1.18331e-05
0.0400625
0.0400623
-7.36256e-06
0.0400245
-1.46307e-05
0.0400238
-2.17457e-05
0.0400226
-2.86266e-05
0.0400208
-3.31852e-05
0.0400183
-3.93301e-05
0.0400152
-4.49559e-05
0.0400133
-4.99482e-05
0.0400067
-5.41822e-05
0.0400033
-5.75183e-05
0.0399971
-5.78036e-05
0.0399881
-5.88861e-05
0.0399822
-5.05883e-05
0.0399754
-4.47526e-05
0.0399738
-7.21333e-06
0.0399694
-2.75976e-05
0.0399603
-2.9965e-05
0.0399427
-2.21467e-05
0.0399287
-8.02614e-06
0.0399186
1.64533e-05
0.0399187
1.93567e-05
0.0399691
3.24388e-05
0.0399088
5.35311e-05
0.0398777
7.63529e-05
0.0398683
0.000100515
0.0398631
0.000125504
0.0398599
0.000150765
0.0398607
0.00017544
0.0398658
0.000197904
0.0398901
0.000214445
0.0399532
0.00023285
0.0399113
0.000249759
0.0399081
0.00026389
0.0399225
0.000274376
0.03994
0.000280151
0.0399593
0.000285602
0.0399751
0.000285703
0.0399951
0.000280711
0.0400121
0.000276958
0.0400257
0.000268817
0.0400418
0.000256675
0.0400542
0.000246925
0.0400627
0.000233934
0.0400735
0.000220006
0.0400786
0.000199442
0.0400941
0.000172511
0.0401181
0.000157393
0.0401409
0.000160263
0.0400987
0.000147201
0.0400937
0.000132339
0.040086
0.00011773
0.0400838
0.000103411
0.0400832
9.14018e-05
0.0400803
7.56847e-05
0.0400813
6.42582e-05
0.0400783
4.90746e-05
0.0400793
3.61072e-05
0.0400764
2.53082e-05
0.0400757
1.2618e-05
0.0400752
0.0400749
-8.51626e-06
0.040033
-1.49325e-05
0.0400302
-2.32022e-05
0.0400309
-3.12392e-05
0.0400288
-3.89565e-05
0.040026
-4.62571e-05
0.0400225
-5.30323e-05
0.0400201
-5.91594e-05
0.0400128
-6.4503e-05
0.0400087
-6.69076e-05
0.0399995
-7.22044e-05
0.0399934
-7.42069e-05
0.0399842
-7.27115e-05
0.0399739
-6.15141e-05
0.0399626
-5.43915e-05
0.0399622
-5.30261e-05
0.0399589
-4.73304e-05
0.039937
-3.70789e-05
0.0399185
-2.41088e-05
0.0399057
-8.31478e-06
0.0399029
4.37303e-06
0.0399564
2.37462e-05
0.0398894
4.76396e-05
0.0398538
7.37375e-05
0.0398422
0.000101573
0.0398353
0.000130571
0.0398309
0.000160206
0.0398311
0.000189131
0.0398369
0.000215504
0.0398638
0.0002359
0.0399328
0.000257686
0.0398895
0.000277602
0.0398882
0.000293706
0.0399064
0.000305655
0.039928
0.00031415
0.0399508
0.000315661
0.0399736
0.000317216
0.0399935
0.000313171
0.0400161
0.000303962
0.040035
0.000296077
0.0400497
0.000284017
0.0400663
0.000270225
0.0400765
0.000255153
0.0400886
0.000233183
0.0401005
0.000192654
0.0401346
0.000161908
0.0401489
0.000181022
0.0401218
0.000172208
0.0401076
0.000155646
0.0401102
0.000141406
0.0401003
0.000125546
0.0400997
0.000110079
0.0400987
9.50162e-05
0.0400954
8.03399e-05
0.040096
6.60204e-05
0.0400926
5.40187e-05
0.0400913
4.02727e-05
0.0400901
2.67266e-05
0.0400892
1.332e-05
0.0400886
0.0400882
-9.77396e-06
0.0400428
-1.94504e-05
0.0400399
-2.8984e-05
0.0400404
-3.82957e-05
0.0400381
-4.72986e-05
0.040035
-5.58953e-05
0.0400311
-6.19723e-05
0.0400262
-6.9405e-05
0.0400203
-7.40406e-05
0.0400133
-8.17257e-05
0.0400072
-8.42541e-05
0.0399959
-8.74144e-05
0.0399873
-8.89831e-05
0.0399755
-8.86862e-05
0.0399623
-7.82588e-05
0.0399518
-7.33778e-05
0.0399541
-6.58283e-05
0.0399295
-5.53334e-05
0.039908
-4.16504e-05
0.039892
-2.4603e-05
0.0398858
-8.06848e-06
0.0399399
1.17862e-05
0.0398695
3.87805e-05
0.0398268
6.85823e-05
0.0398124
0.000100661
0.0398032
0.000134308
0.0397973
0.000168692
0.0397967
0.000202817
0.0398028
0.000234109
0.0398325
0.000259052
0.0399079
0.000284852
0.0398637
0.000307897
0.0398652
0.00032644
0.0398879
0.000339986
0.0399145
0.000349374
0.0399414
0.000352752
0.0399702
0.000349453
0.0399968
0.000345965
0.0400196
0.000336873
0.0400441
0.000324819
0.0400618
0.00031037
0.0400807
0.00029417
0.0400927
0.000274684
0.040108
0.000238389
0.0401368
0.000191752
0.0401812
0.000202918
0.0401377
0.000200081
0.0401247
0.000181563
0.0401261
0.000167458
0.0401244
0.000147808
0.0401199
0.000132691
0.0401148
0.000116113
0.0401152
0.000100048
0.0401114
8.64759e-05
0.0401095
6.9334e-05
0.0401097
5.45815e-05
0.040106
4.01447e-05
0.0401046
2.7956e-05
0.0401014
1.39254e-05
0.0401026
0.0401022
-9.12943e-06
0.0400519
-2.21709e-05
0.040053
-3.30793e-05
0.0400513
-4.17812e-05
0.0400468
-5.22005e-05
0.0400454
-6.22355e-05
0.0400411
-7.1784e-05
0.0400357
-8.07045e-05
0.0400292
-8.8846e-05
0.0400214
-9.40278e-05
0.0400124
-0.000102041
0.0400039
-0.000106643
0.0399919
-0.000107562
0.0399764
-0.000108486
0.0399632
-0.000105095
0.0399484
-9.49984e-05
0.039944
-8.98802e-05
0.0399244
-7.73942e-05
0.0398955
-6.31905e-05
0.0398778
-4.30075e-05
0.0398656
-8.67402e-06
0.0399055
-1.03756e-07
0.039861
2.63393e-05
0.0398003
6.03453e-05
0.0397784
9.73287e-05
0.0397662
0.000136456
0.0397581
0.000176681
0.0397565
0.000216632
0.0397628
0.000253989
0.0397951
0.000284452
0.0398774
0.000315053
0.0398331
0.000341977
0.0398382
0.000363572
0.0398663
0.000378811
0.0398992
0.000386599
0.0399336
0.000391551
0.0399653
0.00038896
0.0399994
0.000381502
0.0400271
0.000369978
0.0400556
0.00035516
0.0400766
0.000337842
0.040098
0.000316727
0.0401138
0.000292441
0.0401323
0.000255513
0.0401738
0.00024442
0.0401923
0.000231242
0.0401509
0.000212455
0.0401434
0.000190205
0.0401483
0.000174442
0.0401401
0.000157393
0.040137
0.000139041
0.0401331
0.000121383
0.0401329
0.00010438
0.0401284
8.79757e-05
0.0401259
7.4124e-05
0.0401236
5.87229e-05
0.0401214
4.36987e-05
0.0401196
2.69557e-05
0.0401182
1.4419e-05
0.0401152
0.0401166
-1.25868e-05
0.0400645
-2.5086e-05
0.0400655
-3.54709e-05
0.0400617
-4.96884e-05
0.040061
-5.96497e-05
0.0400554
-7.12756e-05
0.0400527
-8.24546e-05
0.0400469
-9.30542e-05
0.0400398
-0.000102916
0.0400313
-0.000111843
0.0400213
-0.000117625
0.0400097
-0.000123978
0.0399983
-0.000128589
0.039981
-0.000131122
0.0399657
-0.000131144
0.0399484
-0.00012822
0.039941
-0.000113942
0.0399101
-0.000105799
0.0398874
-8.73805e-05
0.0398594
-6.02936e-05
0.0398386
5.66503e-06
0.0398396
-2.79783e-06
0.0398694
1.15282e-05
0.039786
4.83268e-05
0.0397416
9.10081e-05
0.0397236
0.000136608
0.0397126
0.000183853
0.0397093
0.000231237
0.0397154
0.000275555
0.0397508
0.000312679
0.0398403
0.000349095
0.0397967
0.000380831
0.0398065
0.000405518
0.0398416
0.000422584
0.0398822
0.000432782
0.0399234
0.000432881
0.0399652
0.000430381
0.0400019
0.000418254
0.0400392
0.000405515
0.0400683
0.000385207
0.0400969
0.00036638
0.0401168
0.000337811
0.0401424
0.000282271
0.0401879
0.000248449
0.0402076
0.000260442
0.0401803
0.000248835
0.0401625
0.000225867
0.0401664
0.000203722
0.0401705
0.000182353
0.0401615
0.000163927
0.0401554
0.0001424
0.0401547
0.000125744
0.0401495
0.000107889
0.0401463
9.07646e-05
0.0401431
7.42845e-05
0.04014
5.83511e-05
0.0401374
4.48684e-05
0.0401331
2.97137e-05
0.0401333
1.4785e-05
0.0401301
0.0401314
-1.41278e-05
0.0400786
-2.81777e-05
0.0400795
-4.21438e-05
0.0400757
-5.3972e-05
0.0400729
-6.96108e-05
0.040071
-8.09649e-05
0.0400641
-9.39459e-05
0.0400599
-0.000106422
0.0400523
-0.000118234
0.0400431
-0.000129185
0.0400323
-0.000139035
0.0400195
-0.000145489
0.0400047
-0.000154202
0.0399897
-0.000156764
0.0399683
-0.000158694
0.0399504
-0.000157431
0.0399398
-0.000152457
0.0399051
-0.000135173
0.0398701
-0.000120917
0.0398451
-9.91372e-05
0.0398168
-5.93961e-05
0.0397998
-4.10639e-05
0.0398511
-1.26138e-05
0.0397576
3.16139e-05
0.0396974
8.09501e-05
0.0396742
0.000134228
0.0396593
0.000189927
0.0396536
0.000245981
0.0396594
0.000299276
0.0396975
0.000344589
0.039795
0.000388069
0.0397532
0.000425411
0.0397692
0.00045367
0.0398133
0.000472844
0.039863
0.000483138
0.0399131
0.000483728
0.0399646
0.000476483
0.0400091
0.000462649
0.040053
0.000443733
0.0400872
0.000421095
0.0401195
0.000391916
0.040146
0.000347224
0.0401871
0.000288054
0.040247
0.00029265
0.040203
0.000285544
0.0401874
0.00026131
0.0401867
0.000234105
0.0401936
0.000211971
0.0401926
0.000191021
0.0401824
0.000167238
0.0401792
0.000148606
0.0401733
0.000129032
0.0401691
0.000110434
0.0401649
9.27092e-05
0.0401608
7.77509e-05
0.040155
6.14217e-05
0.0401537
4.35981e-05
0.0401509
3.01764e-05
0.0401468
1.29976e-05
0.0401473
0.0401444
-1.57419e-05
0.0400944
-2.94143e-05
0.0400932
-4.70496e-05
0.0400933
-6.2598e-05
0.0400884
-7.60138e-05
0.0400845
-9.3246e-05
0.0400813
-0.000106184
0.0400728
-0.00012074
0.0400668
-0.000132737
0.0400551
-0.000145991
0.0400455
-0.00015824
0.0400318
-0.000169198
0.0400157
-0.000178458
0.039999
-0.000185567
0.0399754
-0.000189967
0.0399548
-0.000189003
0.0399388
-0.000185994
0.0399021
-0.00018016
0.0398643
-0.000160672
0.0398256
-0.000138708
0.0397948
-0.000107503
0.0397686
-5.85073e-05
0.0398021
-3.54258e-05
0.0397345
9.05116e-06
0.0396529
6.61549e-05
0.0396171
0.000128618
0.0395968
0.000194593
0.0395876
0.000261716
0.0395923
0.000325707
0.0396335
0.000381262
0.0397394
0.000433504
0.0397009
0.000477388
0.0397253
0.000510449
0.0397803
0.000531552
0.0398419
0.000539228
0.0399055
0.000539367
0.0399645
0.000526067
0.0400224
0.000509279
0.0400698
0.000480885
0.0401156
0.000446724
0.0401537
0.000410224
0.0401825
0.000368726
0.0402286
0.000347032
0.0402687
0.000327672
0.0402223
0.000301345
0.0402138
0.000268324
0.0402198
0.000238825
0.0402231
0.000218673
0.0402128
0.000194108
0.040207
0.000173073
0.0402002
0.000151425
0.040195
0.000131066
0.0401895
0.000111862
0.0401841
9.57005e-05
0.040177
7.6394e-05
0.0401743
6.18375e-05
0.0401682
4.58567e-05
0.0401669
3.03145e-05
0.0401623
1.50632e-05
0.0401625
0.0401594
-1.74116e-05
0.0401118
-3.47767e-05
0.0401105
-5.01335e-05
0.0401087
-6.74808e-05
0.0401058
-8.67936e-05
0.0401038
-0.000102011
0.0400965
-0.000119081
0.0400899
-0.000135901
0.0400836
-0.000152328
0.0400715
-0.000168176
0.0400614
-0.000183195
0.0400468
-0.000197065
0.0400296
-0.000207376
0.0400093
-0.00021761
0.0399857
-0.000223172
0.0399603
-0.000225303
0.0399409
-0.000227033
0.0399038
-0.000221504
0.0398587
-0.000209615
0.0398137
-0.000182207
0.0397674
-0.000144249
0.0397307
-5.50066e-05
0.0397129
-5.26976e-05
0.0397322
-1.90561e-05
0.0396193
4.51611e-05
0.0395529
0.000118621
0.0395234
0.00019735
0.0395089
0.000277622
0.039512
0.000355482
0.0395556
0.000423905
0.039671
0.0004871
0.0396377
0.000539476
0.0396729
0.00057747
0.0397423
0.000600247
0.0398191
0.000608873
0.0398968
0.000603171
0.0399702
0.000586156
0.0400395
0.000556526
0.0400994
0.000511056
0.0401611
0.000451938
0.0402128
0.000395125
0.0402393
0.000359896
0.0402638
0.000370944
0.0402577
0.000345241
0.040248
0.000311327
0.0402477
0.000277375
0.0402537
0.000249379
0.0402511
0.000223358
0.0402388
0.00019933
0.040231
0.000175137
0.0402244
0.000152632
0.0402175
0.000131653
0.0402105
0.000114039
0.0402017
9.35824e-05
0.0401974
7.81465e-05
0.0401897
5.95181e-05
0.0401869
4.55651e-05
0.0401808
2.80817e-05
0.0401798
1.49412e-05
0.0401757
0.0401744
-1.91147e-05
0.0401309
-3.82061e-05
0.0401296
-5.73449e-05
0.0401278
-7.65549e-05
0.040125
-9.38229e-05
0.040121
-0.000113147
0.0401158
-0.000132479
0.0401092
-0.00015174
0.0401029
-0.000170834
0.0400906
-0.000189571
0.0400801
-0.000205717
0.040063
-0.000222952
0.0400468
-0.000238885
0.0400252
-0.000252949
0.0399997
-0.000262492
0.0399699
-0.000262698
0.0399411
-0.000270122
0.0399112
-0.000271977
0.0398606
-0.000262781
0.0398045
-0.00024495
0.0397496
-0.000206926
0.0396927
-0.000155136
0.0396611
-0.000115973
0.039693
-5.82792e-05
0.0395616
1.65154e-05
0.0394781
0.000102974
0.0394369
0.00019717
0.0394147
0.000294856
0.0394143
0.000390014
0.0394605
0.000475358
0.0395856
0.000552313
0.0395608
0.000614604
0.0396106
0.000658773
0.0396981
0.000683235
0.0397946
0.000689087
0.039891
0.00067543
0.0399838
0.000647842
0.0400671
0.000596877
0.0401504
0.000542043
0.0402159
0.000500323
0.0402545
0.000441802
0.0402979
0.000419611
0.040286
0.000396906
0.0402804
0.000360601
0.0402844
0.000318904
0.0402894
0.000279947
0.0402927
0.000253478
0.0402776
0.000225651
0.0402666
0.00019828
0.0402584
0.000173122
0.0402496
0.000151975
0.0402386
0.000130583
0.0402319
0.000110755
0.0402215
9.22515e-05
0.0402159
7.48698e-05
0.0402071
6.04166e-05
0.0402013
4.26659e-05
0.0401986
2.94719e-05
0.040193
1.46214e-05
0.0401905
0.040189
-2.08243e-05
0.0401517
-4.16533e-05
0.0401505
-6.25944e-05
0.0401487
-8.16873e-05
0.0401441
-0.000102982
0.0401423
-0.000124487
0.0401374
-0.000148204
0.0401329
-0.000168072
0.0401228
-0.000190031
0.0401126
-0.000209933
0.0401
-0.000233587
0.0400866
-0.000252675
0.0400659
-0.000272785
0.0400453
-0.000291396
0.0400183
-0.000307743
0.0399862
-0.000316919
0.0399503
-0.000327495
0.0399218
-0.000330225
0.0398633
-0.000325351
0.0397997
-0.000310694
0.0397349
-0.000283928
0.0396659
-0.000232761
0.0396099
-0.000169046
0.0396293
-0.000110499
0.039503
-2.37198e-05
0.0393913
7.84922e-05
0.0393347
0.000191333
0.0393018
0.000310397
0.0392952
0.000429474
0.0393414
0.000537091
0.039478
0.000629731
0.0394682
0.000704989
0.0395354
0.000756008
0.0396471
0.000781334
0.0397693
0.00078122
0.0398911
0.000760833
0.0400042
0.000705874
0.040122
0.000640332
0.040216
0.000591515
0.0402647
0.000548833
0.0402972
0.000502878
0.0403438
0.000460912
0.040328
0.000414077
0.0403272
0.000368806
0.0403296
0.000325189
0.040333
0.000289137
0.0403287
0.000256488
0.0403102
0.000227095
0.040296
0.000198615
0.0402869
0.000172749
0.0402755
0.000149199
0.0402622
0.000127669
0.0402534
0.000107882
0.0402413
9.15844e-05
0.0402322
7.24957e-05
0.0402262
5.64201e-05
0.0402174
4.31371e-05
0.0402119
2.84239e-05
0.0402077
1.40881e-05
0.0402049
0.0402031
-2.25088e-05
0.0401742
-4.30452e-05
0.040171
-6.57738e-05
0.0401715
-9.07778e-05
0.0401691
-0.000114113
0.0401657
-0.000137844
0.0401611
-0.000160001
0.0401551
-0.000184607
0.0401474
-0.000209609
0.0401376
-0.000234953
0.0401253
-0.000258444
0.0401101
-0.000285854
0.0400933
-0.000308788
0.0400683
-0.000332704
0.0400422
-0.000354898
0.0400084
-0.000372321
0.0399677
-0.000383642
0.0399331
-0.000397024
0.0398767
-0.000398418
0.0398011
-0.000389177
0.0397257
-0.000364058