/*--------------------------------*- C++ -*----------------------------------*\
  =========                 |
  \\      /  F ield         | OpenFOAM: The Open Source CFD Toolbox
   \\    /   O peration     | Website:  https://openfoam.org
    \\  /    A nd           | Version:  12
     \\/     M anipulation  |
\*---------------------------------------------------------------------------*/
FoamFile
{
    format      ascii;
    class       volVectorField;
    location    "80";
    object      U;
}
// * * * * * * * * * * * * * * * * * * * * * * * * * * * * * * * * * * * * * //

dimensions      [0 1 -1 0 0 0 0];

internalField   nonuniform List<vector> 
16227
(
(2 -2.57882e-06 -3.76008e-23)
(2 -7.65117e-06 3.77551e-23)
(2 -1.24894e-05 -3.77557e-23)
(2 -1.69563e-05 -3.79418e-23)
(2 -2.08998e-05 3.79424e-23)
(2 -2.41674e-05 3.82194e-23)
(2 -2.66099e-05 1.70494e-25)
(2 -2.80746e-05 -7.69405e-23)
(2 -2.84098e-05 1.16043e-22)
(2 -2.74662e-05 -7.74815e-23)
(2 -2.51011e-05 0)
(2 -2.11824e-05 7.83578e-23)
(2 -1.55964e-05 0)
(2 -8.24e-06 0)
(2 9.75791e-07 0)
(2 1.21066e-05 0)
(2 2.51765e-05 0)
(2 4.01729e-05 0)
(2 5.70408e-05 0)
(2 7.56791e-05 0)
(2 9.59355e-05 -7.52111e-23)
(2 0.000117607 1.42345e-24)
(2 0.00014044 7.37866e-23)
(2 0.000164133 0)
(2 0.000188342 -6.778e-23)
(2 0.000212687 6.77795e-23)
(2 0.000236763 0)
(2 0.000260138 3.04277e-23)
(2 0.000282407 0)
(2 0.000303179 0)
(2 0.000322062 0)
(2 0.000338727 0)
(2 0.000352874 0)
(2 0.000364295 3.49166e-23)
(2 0.00037283 -4.59916e-24)
(2 0.000378403 -3.03168e-23)
(2 0.00038099 0)
(2 0.000380639 1.62429e-23)
(2 0.000377458 -4.66262e-24)
(2 0.000371601 -1.15803e-23)
(2 0.000363263 0)
(2 0.000352668 0)
(2 0.000340062 0)
(2 0.000325696 0)
(2 0.000309825 0)
(2 0.000292692 0)
(2 0.000274531 0)
(2 0.000255566 0)
(2 0.000235978 0)
(2 0.000215923 0)
(2 0.000195555 0)
(2 0.000174987 0)
(2 0.000154335 0)
(2 0.000133643 0)
(2 0.000112952 1.96125e-23)
(2 9.22901e-05 -1.96133e-23)
(2 7.16866e-05 0)
(2 5.11574e-05 0)
(2 3.06897e-05 0)
(2 1.02359e-05 -2.12104e-23)
(2.00001 -9.7344e-06 6.69145e-26)
(2.00001 -2.88932e-05 0)
(2.00001 -4.72079e-05 0)
(2.00001 -6.41672e-05 0)
(2.00001 -7.92082e-05 -6.41965e-23)
(2.00001 -9.17838e-05 0)
(2 -0.00010134 0)
(2 -0.000107318 -1.95413e-22)
(2 -0.000109159 1.30389e-22)
(2 -0.000106322 -2.63297e-22)
(1.99999 -9.82784e-05 1.05611e-21)
(1.99999 -8.45167e-05 -6.6166e-22)
(1.99999 -6.46191e-05 3.3208e-22)
(1.99998 -3.82119e-05 0)
(1.99998 -4.95e-06 0)
(1.99997 3.53761e-05 0)
(1.99997 8.28727e-05 0)
(1.99996 0.000137503 0)
(1.99996 0.000199083 0)
(1.99995 0.000267251 0)
(1.99995 0.000341453 0)
(1.99995 0.000420953 0)
(1.99995 0.000504827 0)
(1.99994 0.00059197 0)
(1.99994 0.000681113 0)
(1.99994 0.000770852 -1.10558e-22)
(1.99994 0.000859695 1.10553e-22)
(1.99995 0.000946072 -5.14362e-23)
(1.99995 0.00102844 0)
(1.99995 0.00110532 0)
(1.99996 0.00117529 0)
(1.99996 0.0012371 0)
(1.99997 0.00128967 0)
(1.99998 0.0013322 0)
(1.99998 0.0013641 0)
(1.99999 0.00138507 -4.33927e-23)
(2 0.00139503 7.99561e-24)
(2 0.00139413 7.98916e-24)
(2.00001 0.00138277 7.92255e-24)
(2.00002 0.00136155 1.94851e-23)
(2.00002 0.00133116 4.06294e-24)
(2.00003 0.00129246 -4.06301e-24)
(2.00003 0.00124633 0)
(2.00004 0.00119373 0)
(2.00004 0.00113559 0)
(2.00004 0.00107281 0)
(2.00004 0.00100623 0)
(2.00005 0.000936678 0)
(2.00005 0.000864838 0)
(2.00005 0.000791322 0)
(2.00005 0.000716662 -5.45982e-23)
(2.00005 0.000641268 1.11491e-22)
(2.00005 0.000565546 1.22982e-22)
(2.00005 0.000489712 -1.22991e-22)
(2.00005 0.000413862 1.33299e-22)
(2.00005 0.000338148 -2.0187e-22)
(2.00005 0.000262668 6.85966e-23)
(2.00005 0.000187432 -3.55869e-23)
(2.00005 0.000112417 3.55882e-23)
(2.00005 3.74817e-05 -2.51427e-25)
(2.00004 -1.8016e-05 6.3424e-23)
(2.00004 -5.34958e-05 0)
(2.00004 -8.75041e-05 0)
(2.00003 -0.00011913 0)
(2.00003 -0.000147386 6.41974e-23)
(2.00002 -0.000171304 -1.2914e-22)
(2.00002 -0.000189909 -6.25014e-25)
(2.00001 -0.000202209 1.94746e-22)
(2 -0.000207212 6.536e-23)
(1.99999 -0.000203951 2.63481e-22)
(1.99998 -0.000191497 -2.62765e-22)
(1.99997 -0.000168895 -5.29821e-22)
(1.99996 -0.000135377 6.68344e-23)
(1.99994 -9.03009e-05 0)
(1.99993 -3.30122e-05 6.70618e-23)
(1.99991 3.68973e-05 0)
(1.9999 0.000119643 0)
(1.99989 0.0002152 0)
(1.99987 0.000323257 -2.63175e-22)
(1.99986 0.00044324 2.63135e-22)
(1.99985 0.00057415 -1.28242e-22)
(1.99984 0.000714715 1.28234e-22)
(1.99983 0.000863316 0)
(1.99983 0.001018 -1.19676e-22)
(1.99982 0.00117649 3.87922e-24)
(1.99982 0.0013363 1.15779e-22)
(1.99983 0.00149473 0)
(1.99983 0.00164899 0)
(1.99984 0.00179629 0)
(1.99986 0.00193396 0)
(1.99987 0.00205942 3.88972e-23)
(1.99989 0.00217039 -8.18205e-23)
(1.99991 0.00226496 0)
(1.99993 0.00234165 0)
(1.99995 0.00239938 5.15046e-23)
(1.99997 0.00243761 -5.1502e-23)
(1.99999 0.00245619 0)
(2.00001 0.00245542 0)
(2.00003 0.00243601 0)
(2.00005 0.00239899 0)
(2.00007 0.00234567 0)
(2.00008 0.00227754 0)
(2.0001 0.00219625 3.91121e-24)
(2.00011 0.00210347 0)
(2.00012 0.00200087 0)
(2.00013 0.00189004 0)
(2.00013 0.00177257 1.92868e-23)
(2.00014 0.00164984 -3.6321e-23)
(2.00014 0.0015231 0)
(2.00015 0.00139345 -2.48021e-23)
(2.00015 0.00126182 0)
(2.00015 0.00112897 -5.68747e-23)
(2.00015 0.000995567 -1.2439e-22)
(2.00015 0.000861954 -3.77354e-23)
(2.00015 0.000728356 1.29976e-22)
(2.00015 0.000595073 -6.92724e-23)
(2.00015 0.000462233 6.92976e-23)
(2.00015 0.000329809 0)
(2.00015 0.000197785 0)
(2.00015 6.59248e-05 3.60635e-23)
(2.00008 -2.73519e-05 0)
(2.00008 -8.1249e-05 0)
(2.00008 -0.000133054 -6.35281e-23)
(2.00007 -0.000181461 0)
(2.00006 -0.000225054 -6.41912e-23)
(2.00005 -0.000262449 6.41903e-23)
(2.00004 -0.000292241 0)
(2.00002 -0.000313003 -1.95747e-22)
(2 -0.00032329 1.95346e-22)
(1.99998 -0.000321688 0)
(1.99996 -0.000306854 -2.65191e-22)
(1.99994 -0.000277359 -7.99428e-22)
(1.99991 -0.00023202 -1.3339e-22)
(1.99988 -0.000169925 0)
(1.99985 -9.00493e-05 -6.70713e-23)
(1.99982 8.2382e-06 0)
(1.99979 0.000125332 0)
(1.99976 0.000261243 5.34454e-22)
(1.99974 0.000415587 -5.34342e-22)
(1.99971 0.000587626 0)
(1.99968 0.000775999 -1.29475e-22)
(1.99966 0.0009788 2.27703e-24)
(1.99965 0.00119374 2.78702e-24)
(1.99964 0.00141798 1.24394e-22)
(1.99963 0.00164824 0)
(1.99963 0.00188084 0)
(1.99964 0.00211186 0)
(1.99965 0.00233714 5.11234e-23)
(1.99967 0.00255255 -9.99284e-25)
(1.99969 0.00275417 4.48331e-23)
(1.99973 0.00293813 -1.94255e-24)
(1.99976 0.00310104 0)
(1.9998 0.00324005 0)
(1.99984 0.00335295 0)
(1.99989 0.00343818 -5.18122e-23)
(1.99993 0.00349489 8.20862e-24)
(1.99998 0.00352288 8.25985e-24)
(2.00002 0.00352267 8.24335e-24)
(2.00007 0.0034953 4.60287e-23)
(2.00011 0.00344226 -1.89325e-23)
(2.00014 0.00336554 0)
(2.00017 0.00326737 6.21647e-25)
(2.0002 0.00315017 -3.90943e-24)
(2.00023 0.00301638 0)
(2.00025 0.00286847 0)
(2.00027 0.00270884 0)
(2.00028 0.00253972 1.70246e-23)
(2.00029 0.00236318 0)
(2.0003 0.00218099 0)
(2.0003 0.00199476 5.02809e-23)
(2.00031 0.00180584 1.12879e-22)
(2.00031 0.0016153 -2.33106e-22)
(2.00031 0.00142415 1.20276e-22)
(2.00031 0.00123267 1.64476e-22)
(2.00031 0.0010414 -1.32331e-22)
(2.00031 0.000850714 0)
(2.00031 0.000660745 0)
(2.00031 0.000471389 -3.67069e-23)
(2.00031 0.00028266 0)
(2.00031 9.41907e-05 0)
(2.00015 -3.78289e-05 0)
(2.00014 -0.000112416 0)
(2.00014 -0.000184303 2.34682e-25)
(2.00013 -0.000251799 0)
(2.00011 -0.000313073 0)
(2.00009 -0.00036632 -1.28489e-22)
(2.00007 -0.0004097 -1.94628e-22)
(2.00004 -0.000441351 1.94001e-22)
(2.00001 -0.00045937 0)
(1.99997 -0.000461858 0)
(1.99994 -0.000447039 -2.65783e-22)
(1.99989 -0.000412993 1.59737e-21)
(1.99985 -0.000358027 -1.32998e-22)
(1.9998 -0.000280929 1.34398e-22)
(1.99975 -0.000180265 0)
(1.9997 -5.51117e-05 0)
(1.99965 9.51585e-05 2.7085e-22)
(1.9996 0.00027065 8.1353e-22)
(1.99955 0.000471017 -4.04211e-22)
(1.9995 0.00069537 0)
(1.99946 0.00094208 0)
(1.99942 0.00120852 0)
(1.99939 0.00149179 0)
(1.99937 0.00178814 -1.23048e-22)
(1.99936 0.0020932 3.85203e-24)
(1.99936 0.00240205 4.43996e-24)
(1.99937 0.00270938 1.14703e-22)
(1.99939 0.0030096 5.41082e-23)
(1.99943 0.0032971 -1.15833e-24)
(1.99947 0.00356653 -4.89184e-23)
(1.99952 0.0038126 1.28465e-22)
(1.99958 0.00403068 -8.41085e-23)
(1.99965 0.00421691 -6.8718e-23)
(1.99973 0.0043683 6.87102e-23)
(1.99981 0.00448272 5.22419e-23)
(1.99988 0.00455901 -5.22372e-23)
(1.99996 0.00459697 0)
(2.00004 0.00459732 0)
(2.00011 0.00456154 -1.84394e-23)
(2.00018 0.00449172 1.84393e-23)
(2.00024 0.00439055 2.22034e-24)
(2.0003 0.00426111 -2.84179e-24)
(2.00035 0.00410667 0)
(2.00039 0.00393052 0)
(2.00043 0.00373606 0)
(2.00046 0.00352643 0)
(2.00048 0.00330463 0)
(2.0005 0.00307341 0)
(2.00051 0.00283511 2.3997e-23)
(2.00052 0.00259183 1.35203e-22)
(2.00053 0.00234534 -1.07884e-22)
(2.00053 0.00209709 -1.23517e-22)
(2.00053 0.00184824 1.88077e-22)
(2.00053 0.00159913 -1.35587e-22)
(2.00053 0.00135061 1.35597e-22)
(2.00053 0.00110308 0)
(2.00053 0.000856602 0)
(2.00052 0.000611019 -9.16743e-25)
(2.00052 0.000366337 0)
(2.00052 0.000122044 0)
(2.00023 -4.96153e-05 -6.25373e-23)
(2.00023 -0.000147496 0)
(2.00022 -0.000242093 2.10133e-26)
(2.0002 -0.000331341 6.32704e-23)
(2.00018 -0.000413004 0)
(2.00015 -0.000484861 2.02634e-25)
(2.00011 -0.000544635 -1.29298e-22)
(2.00007 -0.000590017 1.29278e-22)
(2.00002 -0.000618646 0)
(1.99997 -0.000628098 0)
(1.99991 -0.000616119 1.32888e-22)
(1.99985 -0.000580349 5.35658e-22)
(1.99978 -0.000518413 -2.68546e-22)
(1.9997 -0.000428634 1.35966e-22)
(1.99963 -0.000309319 0)
(1.99955 -0.000159082 -1.36853e-22)
(1.99947 2.30034e-05 1.36871e-22)
(1.99939 0.000237279 2.4157e-24)
(1.99931 0.000483452 -6.13461e-22)
(1.99924 0.000760633 -1.34929e-22)
(1.99917 0.00106697 1.37208e-22)
(1.99911 0.00139901 2.04304e-24)
(1.99907 0.00175338 1.31436e-22)
(1.99903 0.00212531 0)
(1.99901 0.00250926 0)
(1.99901 0.00289898 0)
(1.99903 0.00328764 0)
(1.99906 0.00366802 -5.41034e-23)
(1.99911 0.00403285 0)
(1.99918 0.00437513 0)
(1.99926 0.00468806 1.32311e-22)
(1.99936 0.00496548 -8.58474e-23)
(1.99946 0.0052024 0)
(1.99958 0.00539501 0)
(1.9997 0.00554052 0)
(1.99982 0.00563752 0)
(1.99994 0.00568579 3.52093e-23)
(2.00006 0.00568631 -8.76597e-24)
(2.00017 0.00564115 -3.73128e-23)
(2.00028 0.00555311 0)
(2.00037 0.00542571 0)
(2.00046 0.00526301 -6.84768e-24)
(2.00053 0.0050692 1.26612e-23)
(2.0006 0.00484864 0)
(2.00065 0.00460562 0)
(2.0007 0.00434418 0)
(2.00073 0.00406812 0)
(2.00076 0.00378088 0)
(2.00078 0.00348541 -7.5382e-23)
(2.00079 0.00318432 -2.25299e-22)
(2.0008 0.00287979 2.23919e-22)
(2.00081 0.0025737 -1.27652e-22)
(2.00081 0.002267 6.31572e-23)
(2.00081 0.00196053 0)
(2.00081 0.00165527 -3.6196e-23)
(2.0008 0.0013515 0)
(2.0008 0.00104923 0)
(2.0008 0.000748273 3.76132e-23)
(2.0008 0.000448551 0)
(2.0008 0.000149394 -3.9241e-23)
(2.00035 -6.29179e-05 4.04618e-25)
(2.00034 -0.000187111 0)
(2.00032 -0.000307464 0)
(2.0003 -0.00042156 -6.28719e-23)
(2.00026 -0.00052677 0)
(2.00022 -0.000620457 6.38995e-23)
(2.00017 -0.000699922 -6.45013e-23)
(2.00011 -0.000762385 1.29175e-22)
(2.00005 -0.000805029 0)
(1.99997 -0.000824883 -2.64823e-22)
(1.99989 -0.000819122 1.31959e-22)
(1.9998 -0.000784959 3.26651e-24)
(1.9997 -0.000719279 5.46563e-22)
(1.99959 -0.000619702 -2.72797e-22)
(1.99948 -0.000484335 -8.40193e-25)
(1.99937 -0.000311178 -6.95552e-23)
(1.99925 -9.89946e-05 1.38758e-21)
(1.99914 0.000153069 -5.55056e-22)
(1.99902 0.000444971 -9.00709e-22)
(1.99892 0.000775656 1.25483e-21)
(1.99882 0.00114328 1.40487e-22)
(1.99873 0.00154348 -1.34407e-22)
(1.99867 0.00197252 2.47671e-24)
(1.99861 0.00242449 1.31882e-22)
(1.99859 0.00289267 0)
(1.99858 0.00336926 0)
(1.9986 0.00384573 0)
(1.99865 0.00431301 0)
(1.99872 0.00476191 5.39723e-23)
(1.99881 0.0051836 0)
(1.99893 0.00556938 -1.37489e-22)
(1.99907 0.00591141 0)
(1.99922 0.00620342 7.13518e-23)
(1.99939 0.00644053 -7.13374e-23)
(1.99956 0.00661934 5.34575e-23)
(1.99974 0.0067382 -9.16187e-24)
(1.99992 0.0067969 -7.93767e-23)
(2.00009 0.00679678 3.50895e-23)
(2.00025 0.00674066 -6.09015e-24)
(2.0004 0.0066322 1.69591e-23)
(2.00053 0.00647597 1.52719e-24)
(2.00066 0.00627712 0)
(2.00076 0.00604101 -5.80987e-24)
(2.00086 0.00577315 0)
(2.00093 0.00547883 0)
(2.00099 0.00516312 -1.76981e-23)
(2.00104 0.00483063 2.08626e-23)
(2.00108 0.00448559 0)
(2.00111 0.00413148 -3.21298e-22)
(2.00113 0.00377151 -2.52348e-22)
(2.00114 0.00340834 4.68029e-22)
(2.00114 0.003044 1.3267e-22)
(2.00115 0.00267937 -3.06593e-22)
(2.00114 0.00231591 1.39147e-22)
(2.00114 0.00195442 3.61883e-23)
(2.00114 0.0015951 0)
(2.00113 0.00123791 -7.847e-23)
(2.00113 0.000882611 3.90363e-23)
(2.00112 0.000528971 0)
(2.00112 0.000176133 -1.32263e-24)
(2.00049 -7.79403e-05 6.21334e-23)
(2.00047 -0.000231879 0)
(2.00045 -0.000381465 0)
(2.00042 -0.00052394 6.24488e-23)
(2.00038 -0.000656312 -4.0903e-25)
(2.00032 -0.000775548 6.3264e-23)
(2.00025 -0.000878516 -6.38645e-23)
(2.00018 -0.000961965 -1.94521e-22)
(2.00009 -0.0010226 1.29832e-22)
(1.99999 -0.00105691 -2.65136e-22)
(1.99987 -0.00106139 -6.95716e-23)
(1.99975 -0.00103274 4.03057e-22)
(1.99961 -0.000967278 -1.08553e-21)
(1.99947 -0.00086153 -5.52058e-22)
(1.99932 -0.0007131 5.52525e-22)
(1.99916 -0.000519711 -6.95226e-23)
(1.999 -0.000279397 1.70005e-21)
(1.99884 9.14422e-06 -2.81268e-22)
(1.99869 0.000346501 -2.79206e-22)
(1.99854 0.000731482 -8.33708e-22)
(1.9984 0.00116238 1.45597e-22)
(1.99828 0.00163396 0)
(1.99819 0.00214209 0)
(1.99811 0.00267973 -1.32596e-22)
(1.99807 0.00323885 3.74336e-24)
(1.99806 0.00380987 1.28787e-22)
(1.99808 0.00438238 0)
(1.99814 0.00494515 1.12927e-22)
(1.99824 0.00548669 -1.66834e-22)
(1.99837 0.00599602 0)
(1.99853 0.0064622 4.08276e-23)
(1.99872 0.0068754 -1.7276e-22)
(1.99893 0.00722784 8.973e-24)
(1.99916 0.0075135 1.3689e-22)
(1.9994 0.00772819 -9.52884e-24)
(1.99964 0.00786997 -5.42376e-23)
(1.99988 0.00793887 0)
(2.00012 0.00793677 2.53366e-23)
(2.00034 0.00786731 -9.40816e-24)
(2.00054 0.00773535 -1.59264e-23)
(2.00073 0.00754666 -2.17505e-24)
(2.0009 0.00730783 0)
(2.00104 0.00702547 0)
(2.00116 0.00670646 1.19628e-23)
(2.00126 0.0063573 0)
(2.00135 0.00598409 3.68607e-23)
(2.00141 0.0055924 -2.08522e-23)
(2.00146 0.00518721 5.06971e-23)
(2.00149 0.00477269 3.3011e-22)
(2.00152 0.00435245 2.4568e-22)
(2.00153 0.00392993 -1.1551e-22)
(2.00154 0.00350665 -7.32596e-24)
(2.00154 0.00308415 2.09639e-22)
(2.00153 0.00266407 -7.41119e-23)
(2.00153 0.00224692 0)
(2.00152 0.00183291 0)
(2.00151 0.00142189 -1.55341e-24)
(2.00151 0.00101347 0)
(2.0015 0.000607256 0)
(2.0015 0.000202139 4.05534e-23)
(2.00066 -9.48904e-05 0)
(2.00064 -0.000282416 0)
(2.00061 -0.000465117 6.15789e-23)
(2.00057 -0.000639947 -6.24329e-23)
(2.00052 -0.000803566 0)
(2.00045 -0.00095256 -1.26301e-22)
(2.00036 -0.00108339 6.32202e-23)
(2.00026 -0.00119232 6.40461e-23)
(2.00014 -0.00127555 0)
(2.00001 -0.00132903 0)
(1.99987 -0.00134852 -2.02087e-22)
(1.9997 -0.00133003 1.33824e-22)
(1.99953 -0.00126936 5.51323e-22)
(1.99934 -0.00116182 1.67603e-21)
(1.99914 -0.00100414 0)
(1.99893 -0.000793918 -2.85803e-22)
(1.99872 -0.000527949 -1.13612e-21)
(1.99851 -0.000204541 -2.90965e-22)
(1.9983 0.00017778 -5.74807e-22)
(1.9981 0.00061782 1.44501e-22)
(1.99792 0.00111435 -2.836e-22)
(1.99775 0.00166111 1.37837e-24)
(1.99762 0.00225368 2.08845e-24)
(1.99752 0.00288393 1.40031e-22)
(1.99746 0.00354222 0)
(1.99744 0.00421714 0)
(1.99746 0.00489596 0)
(1.99754 0.0055649 6.15805e-23)
(1.99767 0.00620983 -5.8154e-23)
(1.99784 0.00681711 0)
(1.99805 0.00737313 9.00819e-23)
(1.9983 0.00786561 -9.38089e-23)
(1.99859 0.00828501 0)
(1.99889 0.00862393 0)
(1.99921 0.00887739 8.56448e-23)
(1.99953 0.00904314 -5.51473e-23)
(1.99985 0.00912156 -3.46724e-23)
(2.00016 0.00911531 5.92189e-23)
(2.00045 0.00902916 -2.4548e-23)
(2.00072 0.00886944 0)
(2.00096 0.0086435 -3.53149e-24)
(2.00118 0.00835954 4.17983e-24)
(2.00137 0.00802589 9.4043e-24)
(2.00152 0.00765082 -2.54693e-23)
(2.00165 0.00724227 0)
(2.00176 0.00680753 -1.91622e-23)
(2.00184 0.00635316 4.83537e-23)
(2.0019 0.00588495 -5.06692e-23)
(2.00194 0.00540774 2.5761e-22)
(2.00197 0.00492583 -9.42603e-23)
(2.00198 0.00444281 -6.25592e-23)
(2.00199 0.00396002 -3.63581e-23)
(2.00199 0.00347978 3.63664e-23)
(2.00198 0.00300341 3.78421e-23)
(2.00197 0.00253135 -8.13609e-23)
(2.00196 0.0020637 -9.19216e-25)
(2.00195 0.00160016 8.23718e-23)
(2.00194 0.00114013 -4.33444e-23)
(2.00193 0.000682945 0)
(2.00193 0.000227249 0)
(2.00086 -0.000113956 0)
(2.00085 -0.000339283 0)
(2.00081 -0.000559388 -1.22475e-22)
(2.00076 -0.00077097 0)
(2.00069 -0.000970374 0)
(2.0006 -0.00115385 5.01696e-25)
(2.0005 -0.00131744 0)
(2.00037 -0.00145696 -6.4527e-23)
(2.00023 -0.00156806 -6.57309e-23)
(2.00006 -0.0016461 6.54205e-23)
(1.99987 -0.00168618 -2.69529e-22)
(1.99967 -0.00168337 2.69554e-22)
(1.99945 -0.00163284 0)
(1.99921 -0.00152886 -1.66361e-21)
(1.99895 -0.00136672 -2.78055e-22)
(1.99869 -0.0011439 2.91572e-22)
(1.99841 -0.000855634 -1.74752e-21)
(1.99814 -0.000499369 5.86074e-22)
(1.99787 -7.28666e-05 -2.94984e-22)
(1.9976 0.000422903 0)
(1.99736 0.000987568 -3.01875e-22)
(1.99714 0.00161393 0)
(1.99696 0.00229738 -1.45274e-22)
(1.99682 0.0030285 1.45234e-22)
(1.99673 0.00379611 -1.38952e-22)
(1.9967 0.0045865 6.88559e-23)
(1.99673 0.00538431 0)
(1.99683 0.00617275 -6.15881e-23)
(1.99699 0.00693436 1.79851e-22)
(1.99721 0.0076524 5.67428e-23)
(1.99748 0.00830989 -1.01956e-22)
(1.99781 0.00889165 -3.77856e-23)
(1.99817 0.00938594 8.78508e-23)
(1.99857 0.00978368 0)
(1.99898 0.010079 2.57102e-23)
(1.9994 0.0102696 -1.0939e-23)
(1.99981 0.0103561 -1.0906e-23)
(2.00021 0.0103425 -3.4301e-23)
(2.00059 0.010235 1.30727e-23)
(2.00093 0.0100419 -1.64656e-23)
(2.00124 0.00977233 -1.69864e-24)
(2.00151 0.0094367 0)
(2.00175 0.00904522 -9.39896e-24)
(2.00195 0.00860796 1.35051e-23)
(2.00211 0.00813441 0)
(2.00224 0.00763321 0)
(2.00233 0.00711199 -4.83269e-23)
(2.00241 0.00657742 -1.87474e-24)
(2.00245 0.00603486 -2.06933e-23)
(2.00248 0.00548973 -2.60543e-22)
(2.0025 0.0049447 -6.90715e-23)
(2.0025 0.00440201 -3.85735e-23)
(2.00249 0.0038641 -3.98774e-23)
(2.00248 0.00333197 -1.33325e-24)
(2.00247 0.00280595 3.92136e-23)
(2.00245 0.00228602 0)
(2.00244 0.00177155 0)
(2.00242 0.00126171 8.86264e-23)
(2.00242 0.000755538 0)
(2.00241 0.000251308 0)
(2.00111 -0.000135305 0)
(2.00109 -0.000402997 0)
(2.00105 -0.000665143 1.63647e-25)
(2.00098 -0.000918269 6.07248e-23)
(2.0009 -0.00115842 0)
(2.00079 -0.00138157 6.23652e-23)
(2.00067 -0.00158338 6.32964e-23)
(2.00051 -0.00175922 9.29243e-25)
(2.00033 -0.00190417 6.05131e-25)
(2.00013 -0.002013 -6.63562e-23)
(1.9999 -0.00208007 6.63606e-23)
(1.99965 -0.00209944 6.82563e-23)
(1.99938 -0.00206545 -1.39241e-22)
(1.99908 -0.00197149 -1.13572e-21)
(1.99876 -0.00181086 -2.94102e-22)
(1.99842 -0.00158028 1.16185e-21)
(1.99808 -0.00127416 8.87295e-22)
(1.99773 -0.000888048 -6.0134e-22)
(1.99738 -0.000418807 6.0743e-22)
(1.99704 0.000133035 9.38679e-22)
(1.99673 0.000768587 1.48572e-22)
(1.99644 0.00147959 -3.01928e-24)
(1.9962 0.00226135 -1.5134e-22)
(1.99602 0.00310324 3.00176e-22)
(1.9959 0.00399234 -1.48828e-22)
(1.99585 0.00491237 7.00711e-23)
(1.99588 0.0058448 0)
(1.99599 0.00676912 6.78033e-23)
(1.99618 0.00766393 6.65707e-23)
(1.99646 0.00850861 -6.11177e-23)
(1.99681 0.00928193 4.88063e-23)
(1.99723 0.00996513 4.74396e-23)
(1.99769 0.0105438 3.6486e-23)
(1.9982 0.0110069 -8.04545e-23)
(1.99872 0.0113476 0)
(1.99925 0.0115632 -4.55069e-23)
(1.99978 0.0116556 1.17061e-23)
(2.00028 0.01163 3.37764e-23)
(2.00075 0.0114947 -1.11372e-23)
(2.00118 0.0112605 1.19466e-23)
(2.00157 0.0109392 5.36714e-24)
(2.00191 0.0105435 2.76461e-23)
(2.0022 0.0100861 -1.93354e-23)
(2.00244 0.00957909 1.74639e-23)
(2.00263 0.00903374 2.15208e-23)
(2.00278 0.00846017 1.02638e-22)
(2.0029 0.00786714 -3.33505e-22)
(2.00298 0.00726216 -1.73459e-24)
(2.00303 0.0066514 -5.07955e-22)
(2.00306 0.00604107 -2.20726e-22)
(2.00307 0.00543277 3.46444e-23)
(2.00307 0.00482982 7.72724e-23)
(2.00306 0.00423448 4.20337e-23)
(2.00304 0.00364736 -4.20458e-23)
(2.00302 0.00306867 4.28887e-23)
(2.00299 0.00249806 4.53258e-23)
(2.00297 0.00193464 -4.53385e-23)
(2.00296 0.00137718 1.21626e-24)
(2.00294 0.000824385 -4.65072e-23)
(2.00294 0.000274105 0)
(2.0014 -0.000159075 0)
(2.00138 -0.000473979 0)
(2.00133 -0.000783122 0)
(2.00125 -0.00108291 -6.03962e-23)
(2.00115 -0.00136918 6.039e-23)
(2.00103 -0.00163766 -6.18392e-23)
(2.00087 -0.00188368 6.18356e-23)
(2.00069 -0.00210218 0)
(2.00048 -0.00228771 0)
(2.00024 -0.00243437 6.6269e-23)
(1.99996 -0.00253581 -1.33914e-22)
(1.99966 -0.00258499 -5.92282e-25)
(1.99932 -0.0025751 2.81455e-22)
(1.99896 -0.00249882 8.53518e-22)
(1.99856 -0.00234717 5.88433e-22)
(1.99815 -0.00211501 -5.89576e-22)
(1.99772 -0.00179662 -6.12445e-22)
(1.99728 -0.00138478 3.84001e-22)
(1.99685 -0.000875219 -3.17818e-22)
(1.99642 -0.000267746 4.29995e-23)
(1.99602 0.000440872 -6.36999e-22)
(1.99565 0.00124268 1.27995e-21)
(1.99534 0.00213143 -1.59381e-22)
(1.99509 0.00309578 0)
(1.99492 0.00412097 0)
(1.99485 0.00518786 0)
(1.99487 0.00627397 0)
(1.99501 0.00735453 -6.78222e-23)
(1.99524 0.00840297 7.09563e-23)
(1.99559 0.00939391 -3.75915e-25)
(1.99603 0.0103008 0)
(1.99655 0.0111004 4.35962e-23)
(1.99713 0.0117749 -5.17229e-23)
(1.99777 0.0123109 3.95756e-23)
(1.99843 0.0127004 5.85154e-23)
(1.99909 0.0129408 -8.47079e-23)
(1.99975 0.0130353 -3.3052e-23)
(2.00037 0.012991 2.00396e-23)
(2.00096 0.0128194 0)
(2.00149 0.0125342 2.14674e-24)
(2.00196 0.0121505 1.84162e-24)
(2.00237 0.0116843 2.11104e-24)
(2.00272 0.0111508 1.5375e-23)
(2.003 0.0105647 4.37966e-23)
(2.00323 0.00993941 -6.28246e-23)
(2.0034 0.00928646 2.25248e-22)
(2.00353 0.00861573 -2.25259e-22)
(2.00362 0.00793628 5.06237e-22)
(2.00368 0.00725422 -6.67196e-22)
(2.0037 0.0065762 2.21101e-22)
(2.00371 0.00590345 0)
(2.0037 0.00524005 -4.29175e-23)
(2.00368 0.0045877 4.29312e-23)
(2.00365 0.00394668 0)
(2.00362 0.00331696 0)
(2.00359 0.00269773 0)
(2.00356 0.00208781 0)
(2.00354 0.00148538 0)
(2.00352 0.000888794 0)
(2.00351 0.000295393 0)
(2.00175 -0.000185369 0)
(2.00171 -0.000552551 0)
(2.00166 -0.000913876 0)
(2.00157 -0.00126575 0)
(2.00146 -0.00160382 0)
(2.00131 -0.0019237 6.10734e-23)
(2.00113 -0.00222042 -1.23175e-22)
(2.00092 -0.00248856 6.21095e-23)
(2.00067 -0.00272215 -6.46278e-23)
(2.00038 -0.00291459 -1.4607e-24)
(2.00006 -0.00305877 6.60984e-23)
(1.99969 -0.0031466 0)
(1.99929 -0.00316976 -1.44434e-22)
(1.99885 -0.00311997 -4.43639e-22)
(1.99838 -0.00298662 2.96958e-21)
(1.99788 -0.00276127 -1.19753e-21)
(1.99735 -0.0024374 6.20213e-22)
(1.99681 -0.00200552 2.15732e-24)
(1.99626 -0.00145933 3.9984e-22)
(1.99573 -0.000797027 -6.20159e-22)
(1.99522 -1.32972e-05 -1.35353e-21)
(1.99476 0.000885319 1.51867e-23)
(1.99435 0.00189054 0)
(1.99403 0.00299092 -1.64727e-22)
(1.9938 0.00416971 2.98334e-24)
(1.99369 0.00540425 1.61587e-22)
(1.99371 0.00666756 0)
(1.99386 0.00792935 0)
(1.99414 0.00915683 -6.81337e-23)
(1.99456 0.0103184 -1.30296e-22)
(1.99511 0.0113809 1.13077e-22)
(1.99575 0.0123153 -6.08667e-23)
(1.99648 0.0130994 0)
(1.99727 0.013717 -1.13327e-22)
(1.99809 0.0141587 3.9809e-23)
(1.99892 0.0144225 4.54811e-23)
(1.99973 0.0145131 -4.57819e-23)
(2.0005 0.0144411 1.29936e-23)
(2.00121 0.0142215 5.81344e-25)
(2.00186 0.0138723 -4.64847e-24)
(2.00242 0.0134127 2.20319e-24)
(2.00291 0.0128625 2.49403e-24)
(2.00332 0.0122406 -1.53627e-23)
(2.00365 0.0115644 2.87604e-24)
(2.00391 0.0108494 0)
(2.00411 0.010109 7.25716e-25)
(2.00425 0.00935407 -2.47886e-22)
(2.00434 0.00859554 5.98309e-22)
(2.00439 0.00783848 -8.80527e-23)
(2.00441 0.00709041 3.97111e-23)
(2.00441 0.00635236 0)
(2.00439 0.00562854 -4.55891e-23)
(2.00435 0.00491996 4.56052e-23)
(2.00431 0.00422657 0)
(2.00427 0.00354792 0)
(2.00422 0.00288265 0)
(2.00419 0.0022291 -5.06935e-23)
(2.00416 0.00158491 5.07073e-23)
(2.00413 0.000947941 0)
(2.00412 0.000314898 0)
(2.00214 -0.000214244 0)
(2.00211 -0.000638865 0)
(2.00204 -0.00105771 0)
(2.00194 -0.00146727 0)
(2.00181 -0.00186312 0)
(2.00165 -0.00224083 -6.01492e-23)
(2.00144 -0.00259521 1.21444e-22)
(2.00119 -0.00292055 1.33424e-24)
(2.00091 -0.00321043 1.50056e-24)
(2.00057 -0.00345755 6.74552e-23)
(2.0002 -0.00365398 -1.99208e-22)
(1.99977 -0.00379062 -1.93619e-24)
(1.9993 -0.00385751 6.95597e-23)
(1.99877 -0.00384482 -1.50334e-22)
(1.99821 -0.00374066 -8.89655e-22)
(1.9976 -0.00353283 -9.20271e-22)
(1.99697 -0.00321242 -1.10052e-24)
(1.99631 -0.00276833 7.68837e-23)
(1.99564 -0.00219098 2.47596e-22)
(1.99498 -0.00147594 -1.01129e-21)
(1.99434 -0.000615957 -1.13252e-21)
(1.99375 0.000385431 -3.41878e-22)
(1.99323 0.00151774 0)
(1.99281 0.00277002 -1.74561e-22)
(1.99251 0.00412316 2.62683e-24)
(1.99235 0.00555061 1.71749e-22)
(1.99235 0.00701986 8.53759e-23)
(1.99251 0.00849398 0)
(1.99285 0.00993209 1.54484e-22)
(1.99336 0.0112949 -2.09628e-22)
(1.99403 0.0125403 6.62624e-23)
(1.99483 0.0136321 -1.06354e-22)
(1.99573 0.0145426 1.46971e-22)
(1.99671 0.0152517 -1.51186e-23)
(1.99772 0.0157488 -4.25817e-23)
(1.99874 0.0160327 2.65152e-23)
(1.99973 0.0161108 0)
(2.00067 0.0159982 0)
(2.00153 0.015715 2.98884e-24)
(2.0023 0.0152846 4.51873e-24)
(2.00297 0.0147319 -7.26834e-24)
(2.00354 0.0140814 2.94521e-24)
(2.00402 0.0133559 4.24684e-23)
(2.00439 0.0125762 8.31301e-23)
(2.00468 0.01176 -3.496e-22)
(2.0049 0.0109228 2.47108e-22)
(2.00505 0.0100769 -1.49829e-22)
(2.00514 0.00923409 -4.48133e-22)
(2.00518 0.00839816 5.55481e-22)
(2.00519 0.0075781 8.56892e-23)
(2.00517 0.00677412 0)
(2.00513 0.00599029 4.85061e-23)
(2.00508 0.00522674 -4.85272e-23)
(2.00502 0.00448304 0)
(2.00496 0.00375816 -5.19747e-23)
(2.0049 0.00305002 5.1991e-23)
(2.00486 0.00235642 0)
(2.00482 0.00167428 0)
(2.00479 0.00100088 0)
(2.00477 0.000332318 0)
(2.0026 -0.000245703 0)
(2.00256 -0.000732956 0)
(2.00249 -0.00121472 0)
(2.00238 -0.00168765 0)
(2.00223 -0.00214742 0)
(2.00204 -0.00258964 0)
(2.00181 -0.00300902 -6.03233e-23)
(2.00153 -0.00339967 -1.48326e-24)
(2.00121 -0.00375476 -6.51595e-23)
(2.00083 -0.00406642 6.16136e-23)
(2.00039 -0.00432584 -6.94533e-23)
(1.9999 -0.00452286 1.34824e-22)
(1.99935 -0.00464591 -1.44023e-22)
(1.99874 -0.00468312 -4.98261e-24)
(1.99807 -0.00462086 1.36181e-21)
(1.99735 -0.00444367 -3.19024e-22)
(1.99659 -0.00413889 -6.5956e-22)
(1.99579 -0.00369332 -9.02117e-23)
(1.99497 -0.00309291 -9.41454e-24)
(1.99416 -0.0023295 1.07359e-21)
(1.99336 -0.00139344 -1.35688e-22)
(1.99262 -0.000283706 -1.85039e-22)
(1.99196 0.000987374 2.81175e-22)
(1.99142 0.00240987 9.63872e-23)
(1.99102 0.00396191 0)
(1.99079 0.00561275 9.44639e-23)
(1.99076 0.00732338 -8.54382e-23)
(1.99094 0.00904838 1.64916e-22)
(1.99134 0.0107368 -2.41995e-22)
(1.99195 0.0123391 2.14551e-22)
(1.99277 0.013802 -7.10035e-23)
(1.99375 0.0150792 1.129e-22)
(1.99486 0.0161362 -6.17754e-23)
(1.99607 0.0169483 1.24723e-22)
(1.99732 0.0175032 -1.71356e-23)
(1.99856 0.0178013 -8.92079e-23)
(1.99977 0.0178543 -2.86933e-23)
(2.0009 0.0176832 2.86792e-23)
(2.00193 0.0173154 0)
(2.00284 0.0167819 -3.43976e-24)
(2.00363 0.0161142 1.30568e-23)
(2.00429 0.0153428 2.27811e-23)
(2.00482 0.0144953 7.39411e-24)
(2.00525 0.0135962 0)
(2.00556 0.0126657 -3.05781e-22)
(2.00579 0.0117219 6.11654e-22)
(2.00594 0.0107777 2.50837e-22)
(2.00602 0.00984436 8.21578e-23)
(2.00605 0.00892606 -4.62727e-23)
(2.00604 0.00803247 3.4019e-22)
(2.006 0.00716224 -1.46928e-22)
(2.00593 0.00631936 5.01714e-23)
(2.00586 0.0055028 0)
(2.00578 0.00471158 0)
(2.0057 0.00394386 0)
(2.00563 0.00319669 5.55653e-23)
(2.00556 0.00246727 5.05176e-25)
(2.00551 0.00175173 -5.61118e-23)
(2.00548 0.00104659 0)
(2.00545 0.000347312 0)
(2.00312 -0.000279656 -5.38746e-23)
(2.00308 -0.000834611 5.40401e-23)
(2.003 -0.0013846 0)
(2.00288 -0.00192655 -5.56132e-23)
(2.00272 -0.00245641 5.56021e-23)
(2.00251 -0.00296997 0)
(2.00225 -0.00346201 5.91462e-23)
(2.00194 -0.00392653 1.63508e-24)
(2.00158 -0.00435646 -1.23405e-22)
(2.00115 -0.00474343 -6.68059e-23)
(2.00065 -0.00507781 6.24157e-23)
(2.00009 -0.00534837 6.70342e-23)
(1.99946 -0.00554196 0)
(1.99875 -0.00564438 0)
(1.99797 -0.00563975 -1.44997e-22)
(1.99713 -0.0055092 -4.821e-22)
(1.99622 -0.00523565 6.54046e-22)
(1.99527 -0.00480279 -5.23814e-22)
(1.99428 -0.00419102 -1.19621e-23)
(1.99328 -0.00338691 7.69977e-22)
(1.9923 -0.0023774 2.59081e-21)
(1.99137 -0.00115486 -3.91802e-22)
(1.99054 0.000267545 3.02202e-22)
(1.98983 0.00188108 1.02018e-22)
(1.9893 0.00366103 0)
(1.98898 0.00557219 -9.45585e-23)
(1.9889 0.00756778 0)
(1.98909 0.00959197 8.91914e-23)
(1.98956 0.0115808 -5.55705e-24)
(1.9903 0.0134712 -3.27805e-22)
(1.99129 0.0151949 4.4163e-22)
(1.99249 0.016693 -1.71179e-23)
(1.99386 0.0179212 -1.20307e-22)
(1.99534 0.0188491 2.30781e-24)
(1.99687 0.0194628 -2.63927e-23)
(1.9984 0.0197653 9.0331e-23)
(1.99986 0.0197746 0)
(2.00121 0.0195203 0)
(2.00244 0.01904 7.55153e-24)
(2.00351 0.0183745 1.48851e-23)
(2.00442 0.0175641 -5.23122e-23)
(2.00517 0.0166465 8.21771e-24)
(2.00576 0.0156552 8.61794e-24)
(2.00622 0.0146185 -2.74271e-22)
(2.00656 0.0135588 1.78708e-21)
(2.00679 0.0124977 -7.7882e-22)
(2.00693 0.0114463 -1.64889e-22)
(2.00699 0.0104168 0)
(2.007 0.00941354 0)
(2.00696 0.00844515 -1.97044e-22)
(2.00688 0.00750913 -5.3682e-23)
(2.00679 0.00660889 5.37043e-23)
(2.00669 0.00574214 0)
(2.00658 0.00490701 5.71839e-23)
(2.00648 0.00410067 -5.72056e-23)
(2.00638 0.00331925 0)
(2.0063 0.00255904 0)
(2.00624 0.00181536 -5.93554e-23)
(2.00619 0.00108392 5.93773e-23)
(2.00617 0.000359506 0)
(2.00371 -0.00031598 0)
(2.00366 -0.00094343 0)
(2.00358 -0.00156667 5.31251e-23)
(2.00345 -0.00218312 -5.31113e-23)
(2.00328 -0.00278914 0)
(2.00305 -0.00338085 0)
(2.00277 -0.00395332 -5.77377e-23)
(2.00243 -0.00450063 -1.78612e-24)
(2.00202 -0.00501561 1.21069e-22)
(2.00155 -0.00548953 -6.15556e-23)
(2.001 -0.00591207 -1.32881e-22)
(2.00036 -0.00627098 6.17995e-23)
(1.99965 -0.00655157 1.38597e-22)
(1.99884 -0.00673724 -1.5145e-22)
(1.99794 -0.00680938 -9.37543e-22)
(1.99695 -0.00674538 1.58581e-22)
(1.99589 -0.006523 -3.47385e-22)
(1.99475 -0.00612163 7.98201e-22)
(1.99356 -0.00551486 -3.63288e-22)
(1.99235 -0.00468231 -7.55422e-22)
(1.99114 -0.00360613 -3.24426e-21)