/*--------------------------------*- C++ -*----------------------------------*\
  =========                 |
  \\      /  F ield         | OpenFOAM: The Open Source CFD Toolbox
   \\    /   O peration     | Website:  https://openfoam.org
    \\  /    A nd           | Version:  12
     \\/     M anipulation  |
\*---------------------------------------------------------------------------*/
FoamFile
{
    format      ascii;
    class       volScalarField;
    location    "420";
    object      k;
}
// * * * * * * * * * * * * * * * * * * * * * * * * * * * * * * * * * * * * * //

dimensions      [0 2 -2 0 0 0 0];

internalField   nonuniform List<scalar> 
16227
(
0.00914646
0.00914648
0.00914647
0.00914651
0.0091465
0.00914654
0.00914653
0.00914651
0.00914651
0.00914653
0.00914657
0.00914659
0.00914665
0.00914665
0.00914665
0.00914665
0.00914665
0.00914665
0.00914665
0.00914665
0.00914665
0.00914665
0.00914665
0.00914665
0.00914665
0.00914665
0.00914665
0.00914666
0.00914667
0.00914664
0.00914665
0.00914665
0.00914665
0.00914665
0.00914665
0.00914665
0.00914665
0.00914665
0.00914665
0.00914665
0.00914665
0.00914665
0.00914665
0.00914665
0.00914665
0.00914665
0.00914665
0.00914663
0.00914662
0.00914662
0.00914662
0.00914661
0.00914654
0.00914654
0.00914649
0.00914649
0.00914651
0.00914649
0.00914647
0.00914646
0.00848122
0.00848124
0.00848123
0.00848126
0.00848127
0.0084813
0.00848129
0.00848127
0.00848128
0.00848129
0.00848134
0.00848136
0.00848151
0.00848157
0.00848158
0.00848158
0.00848158
0.00848158
0.00848158
0.00848158
0.00848159
0.00848161
0.0084816
0.0084816
0.0084816
0.00848161
0.0084816
0.0084816
0.00848158
0.00848153
0.00848158
0.0084816
0.00848161
0.00848161
0.0084816
0.0084816
0.00848158
0.00848158
0.00848158
0.00848158
0.00848158
0.00848159
0.00848159
0.00848157
0.00848157
0.00848156
0.00848156
0.00848156
0.00848156
0.00848155
0.00848152
0.00848147
0.00848135
0.00848133
0.0084813
0.00848128
0.00848131
0.00848123
0.00848125
0.00848122
0.00790073
0.00790075
0.00790076
0.00790077
0.00790077
0.00790086
0.00790081
0.0079008
0.00790081
0.00790082
0.00790086
0.00790088
0.00790113
0.00790119
0.0079012
0.00790121
0.00790121
0.00790121
0.00790123
0.00790118
0.00790121
0.00790122
0.00790122
0.00790122
0.00790122
0.00790122
0.00790121
0.00790122
0.00790121
0.00790114
0.0079012
0.00790122
0.00790122
0.00790123
0.00790123
0.00790123
0.00790124
0.00790123
0.00790122
0.00790123
0.00790123
0.00790123
0.00790122
0.00790121
0.00790122
0.00790122
0.00790121
0.00790121
0.0079012
0.00790118
0.00790114
0.00790094
0.00790087
0.00790085
0.00790083
0.00790083
0.00790086
0.00790077
0.00790078
0.00790076
0.00739021
0.00739022
0.00739023
0.00739024
0.00739025
0.00739031
0.00739032
0.00739028
0.00739029
0.00739028
0.00739033
0.00739038
0.00739065
0.00739072
0.00739074
0.00739075
0.00739076
0.00739077
0.00739071
0.00739058
0.00739069
0.00739073
0.00739072
0.00739073
0.00739074
0.00739073
0.00739073
0.00739072
0.00739071
0.00739062
0.0073907
0.00739073
0.00739073
0.00739074
0.00739074
0.00739076
0.00739077
0.00739077
0.00739078
0.00739078
0.00739079
0.00739079
0.00739078
0.00739079
0.00739079
0.00739078
0.00739079
0.00739078
0.00739079
0.00739076
0.00739064
0.00739045
0.00739035
0.00739037
0.00739037
0.00739038
0.00739036
0.00739028
0.00739029
0.00739026
0.00693804
0.00693805
0.00693805
0.00693807
0.00693808
0.00693813
0.00693816
0.0069381
0.00693811
0.00693811
0.00693815
0.00693821
0.00693845
0.00693858
0.0069386
0.00693859
0.0069386
0.00693857
0.00693836
0.00693828
0.00693848
0.00693854
0.00693854
0.00693853
0.00693852
0.00693851
0.0069385
0.00693851
0.00693849
0.00693839
0.00693849
0.00693853
0.00693854
0.00693855
0.00693856
0.00693858
0.0069386
0.00693862
0.00693863
0.00693864
0.00693866
0.00693868
0.00693868
0.00693869
0.00693869
0.00693871
0.00693871
0.00693871
0.00693871
0.00693863
0.00693839
0.00693828
0.0069382
0.00693823
0.00693825
0.0069383
0.00693824
0.00693817
0.00693817
0.00693815
0.00653502
0.00653504
0.00653503
0.00653505
0.00653505
0.00653509
0.00653513
0.00653508
0.00653506
0.00653505
0.00653506
0.00653509
0.00653521
0.00653549
0.00653555
0.00653556
0.00653556
0.00653545
0.00653521
0.00653516
0.00653538
0.00653543
0.00653542
0.0065354
0.00653539
0.00653539
0.00653538
0.00653537
0.00653534
0.00653526
0.00653536
0.00653539
0.00653542
0.00653545
0.00653547
0.0065355
0.00653554
0.00653556
0.00653559
0.00653562
0.00653564
0.00653567
0.00653569
0.00653572
0.00653573
0.00653574
0.00653576
0.00653577
0.00653577
0.00653563
0.00653539
0.00653528
0.00653524
0.00653529
0.00653534
0.00653533
0.00653528
0.00653521
0.00653522
0.0065352
0.00617375
0.00617376
0.00617376
0.00617377
0.00617377
0.0061738
0.00617384
0.00617382
0.00617378
0.00617377
0.00617375
0.00617374
0.00617384
0.0061741
0.00617423
0.00617424
0.0061742
0.0061739
0.00617377
0.00617376
0.00617398
0.00617402
0.00617399
0.00617397
0.00617395
0.00617393
0.00617392
0.00617391
0.00617389
0.00617379
0.00617391
0.00617396
0.00617399
0.00617403
0.00617407
0.00617412
0.00617416
0.00617422
0.00617426
0.00617432
0.00617436
0.0061744
0.00617444
0.00617447
0.00617451
0.00617453
0.00617455
0.00617457
0.00617451
0.00617425
0.00617412
0.00617404
0.00617405
0.00617412
0.00617414
0.00617413
0.00617409
0.00617403
0.00617404
0.00617402
0.00584823
0.00584823
0.00584823
0.00584824
0.00584823
0.00584826
0.0058483
0.00584829
0.00584824
0.0058482
0.00584817
0.00584812
0.00584816
0.00584828
0.00584856
0.00584863
0.00584856
0.0058482
0.00584809
0.00584807
0.00584828
0.00584831
0.00584827
0.00584823
0.00584819
0.00584817
0.00584815
0.00584814
0.0058481
0.00584801
0.00584814
0.0058482
0.00584825
0.0058483
0.00584836
0.00584843
0.0058485
0.00584857
0.00584865
0.00584872
0.00584879
0.00584884
0.0058489
0.00584896
0.00584901
0.00584904
0.00584908
0.0058491
0.00584898
0.00584873
0.00584862
0.00584859
0.00584865
0.00584869
0.00584869
0.00584869
0.00584865
0.00584861
0.00584862
0.0058486
0.00555353
0.00555353
0.00555353
0.00555353
0.00555353
0.00555354
0.00555357
0.00555355
0.00555353
0.00555346
0.00555341
0.00555334
0.00555334
0.00555342
0.00555375
0.00555382
0.00555365
0.00555332
0.0055532
0.00555317
0.00555337
0.00555338
0.00555331
0.00555325
0.0055532
0.00555317
0.00555313
0.00555312
0.00555309
0.00555299
0.00555312
0.0055532
0.00555327
0.00555335
0.00555343
0.00555352
0.00555361
0.00555372
0.00555381
0.00555391
0.005554
0.0055541
0.00555417
0.00555425
0.00555431
0.00555438
0.00555442
0.00555438
0.00555413
0.00555402
0.00555396
0.005554
0.00555403
0.00555408
0.00555409
0.00555409
0.00555406
0.00555402
0.00555402
0.00555402
0.00528558
0.00528558
0.00528557
0.00528558
0.00528556
0.00528557
0.00528559
0.00528556
0.00528553
0.0052855
0.00528541
0.00528532
0.00528531
0.00528538
0.00528563
0.0052857
0.00528536
0.00528514
0.00528503
0.00528499
0.00528516
0.00528515
0.00528506
0.00528498
0.00528491
0.00528486
0.00528482
0.00528479
0.00528476
0.00528467
0.00528481
0.0052849
0.00528498
0.00528508
0.00528519
0.00528531
0.00528544
0.00528557
0.00528571
0.00528583
0.00528595
0.00528607
0.00528619
0.00528628
0.00528637
0.00528645
0.00528651
0.00528644
0.00528619
0.0052861
0.00528611
0.00528614
0.00528618
0.00528623
0.00528624
0.00528625
0.00528622
0.0052862
0.0052862
0.00528619
0.00504099
0.00504099
0.00504098
0.00504098
0.00504097
0.00504097
0.00504097
0.00504093
0.00504089
0.00504085
0.00504078
0.00504065
0.00504057
0.00504059
0.00504066
0.00504084
0.00504052
0.00504033
0.00504021
0.00504014
0.00504022
0.00504022
0.00504013
0.00504002
0.00503993
0.00503986
0.0050398
0.00503976
0.00503973
0.00503964
0.00503979
0.0050399
0.00504
0.00504012
0.00504026
0.00504042
0.00504058
0.00504075
0.00504092
0.00504109
0.00504124
0.00504139
0.00504153
0.00504165
0.00504177
0.00504186
0.00504185
0.00504175
0.00504162
0.00504157
0.0050416
0.00504164
0.00504168
0.00504174
0.00504176
0.00504178
0.00504176
0.00504173
0.00504174
0.00504173
0.00481691
0.00481691
0.0048169
0.00481689
0.00481687
0.00481687
0.00481686
0.00481682
0.00481677
0.0048167
0.00481662
0.00481651
0.00481639
0.00481633
0.00481636
0.00481648
0.00481622
0.00481601
0.00481585
0.00481573
0.00481565
0.00481573
0.00481565
0.00481551
0.00481539
0.0048153
0.00481523
0.00481518
0.00481514
0.00481505
0.00481522
0.00481534
0.00481547
0.00481562
0.00481579
0.00481598
0.00481618
0.00481639
0.0048166
0.0048168
0.004817
0.00481718
0.00481736
0.00481752
0.00481765
0.00481773
0.00481764
0.00481763
0.00481758
0.00481756
0.0048176
0.00481766
0.00481771
0.00481777
0.00481779
0.00481782
0.0048178
0.00481777
0.00481779
0.00481778
0.00461092
0.00461092
0.00461091
0.0046109
0.00461087
0.00461086
0.00461084
0.0046108
0.00461073
0.00461065
0.00461057
0.00461044
0.00461031
0.00461016
0.00461008
0.00461004
0.00460994
0.00460978
0.00460958
0.00460941
0.00460926
0.00460934
0.00460923
0.00460906
0.00460891
0.00460879
0.00460869
0.00460864
0.00460859
0.00460851
0.00460868
0.00460882
0.00460897
0.00460916
0.00460937
0.00460961
0.00460985
0.0046101
0.00461036
0.0046106
0.00461084
0.00461108
0.00461128
0.00461147
0.00461162
0.00461168
0.00461163
0.00461167
0.00461164
0.00461164
0.00461169
0.00461176
0.00461183
0.00461188
0.00461192
0.00461194
0.00461194
0.00461192
0.00461193
0.00461193
0.00442098
0.00442098
0.00442097
0.00442095
0.00442092
0.0044209
0.00442087
0.00442082
0.00442074
0.00442066
0.00442055
0.0044204
0.00442026
0.0044201
0.00441993
0.00441984
0.00441976
0.00441957
0.00441934
0.00441913
0.00441893
0.00441897
0.00441882
0.00441861
0.00441842
0.00441827
0.00441815
0.00441807
0.00441802
0.00441794
0.00441811
0.00441828
0.00441846
0.00441869
0.00441894
0.00441922
0.00441952
0.00441982
0.00442013
0.00442043
0.00442071
0.00442098
0.00442123
0.00442144
0.00442155
0.00442159
0.00442167
0.00442173
0.00442173
0.00442177
0.00442184
0.00442191
0.00442198
0.00442205
0.00442209
0.00442212
0.00442212
0.00442211
0.00442212
0.00442212
0.00424532
0.00424532
0.00424531
0.00424528
0.00424525
0.00424523
0.00424519
0.00424513
0.00424505
0.00424495
0.00424483
0.00424467
0.0042445
0.00424432
0.00424413
0.00424399
0.00424388
0.00424366
0.00424338
0.00424312
0.00424287
0.00424285
0.00424265
0.0042424
0.00424217
0.00424198
0.00424183
0.00424173
0.00424167
0.00424159
0.00424178
0.00424197
0.00424218
0.00424245
0.00424275
0.00424308
0.00424344
0.0042438
0.00424416
0.00424452
0.00424485
0.00424517
0.00424545
0.00424565
0.0042457
0.00424585
0.00424597
0.00424607
0.00424612
0.00424617
0.00424627
0.00424635
0.00424643
0.0042465
0.00424655
0.00424658
0.00424658
0.00424659
0.00424659
0.00424659
0.00408245
0.00408244
0.00408242
0.0040824
0.00408236
0.00408234
0.00408229
0.00408222
0.00408213
0.00408202
0.00408188
0.0040817
0.00408152
0.00408131
0.0040811
0.00408093
0.00408077
0.00408051
0.00408018
0.00407987
0.00407957
0.00407943
0.00407922
0.00407892
0.00407864
0.00407841
0.00407823
0.0040781
0.00407802
0.00407794
0.00407815
0.00407836
0.00407861
0.00407893
0.00407928
0.00407968
0.0040801
0.00408053
0.00408095
0.00408136
0.00408174
0.00408211
0.00408243
0.00408263
0.00408273
0.0040829
0.00408306
0.00408315
0.00408323
0.00408334
0.00408346
0.00408356
0.00408364
0.00408372
0.00408378
0.00408381
0.00408382
0.00408382
0.00408384
0.00408383
0.00393103
0.00393102
0.003931
0.00393097
0.00393094
0.00393091
0.00393086
0.00393078
0.00393068
0.00393056
0.00393041
0.00393021
0.00393001
0.00392978
0.00392954
0.00392933
0.00392914
0.00392881
0.00392844
0.00392805
0.00392768
0.00392736
0.00392719
0.00392688
0.00392654
0.00392625
0.00392603
0.00392587
0.00392578
0.0039257
0.00392591
0.00392615
0.00392645
0.00392682
0.00392724
0.0039277
0.00392819
0.00392868
0.00392918
0.00392965
0.0039301
0.0039305
0.00393079
0.00393099
0.00393121
0.00393144
0.00393163
0.00393174
0.00393185
0.00393199
0.00393211
0.00393223
0.00393232
0.0039324
0.00393246
0.0039325
0.00393252
0.00393252
0.00393254
0.00393253
0.00378994
0.00378993
0.00378991
0.00378988
0.00378984
0.00378981
0.00378975
0.00378967
0.00378956
0.00378943
0.00378927
0.00378906
0.00378883
0.00378858
0.00378831
0.00378806
0.00378782
0.00378747
0.00378703
0.00378658
0.00378613
0.00378569
0.00378549
0.00378512
0.00378472
0.00378437
0.0037841
0.00378391
0.00378379
0.0037837
0.00378394
0.00378421
0.00378455
0.00378498
0.00378547
0.00378601
0.00378658
0.00378715
0.00378772
0.00378826
0.00378876
0.00378918
0.00378942
0.00378973
0.00379003
0.00379031
0.00379052
0.00379066
0.0037908
0.00379096
0.0037911
0.00379121
0.00379131
0.0037914
0.00379147
0.00379151
0.00379153
0.00379154
0.00379155
0.00379155
0.00365818
0.00365817
0.00365815
0.00365813
0.00365809
0.00365804
0.00365799
0.0036579
0.00365779
0.00365764
0.00365747
0.00365725
0.00365701
0.00365673
0.00365643
0.00365614
0.00365585
0.00365545
0.00365497
0.00365445
0.00365392
0.00365342
0.00365307
0.00365266
0.00365219
0.00365177
0.00365144
0.0036512
0.00365106
0.00365097
0.00365121
0.00365152
0.00365192
0.00365242
0.003653
0.00365363
0.00365428
0.00365494
0.00365558
0.00365618
0.00365675
0.00365719
0.00365749
0.00365785
0.00365821
0.0036585
0.00365871
0.00365889
0.00365908
0.00365926
0.00365941
0.00365953
0.00365964
0.00365974
0.0036598
0.00365985
0.00365987
0.00365988
0.0036599
0.00365989
0.00353489
0.00353488
0.00353486
0.00353483
0.00353479
0.00353475
0.00353469
0.00353459
0.00353448
0.00353433
0.00353415
0.00353392
0.00353366
0.00353336
0.00353303
0.00353269
0.00353235
0.00353191
0.00353138
0.00353079
0.00353017
0.00352956
0.003529
0.0035286
0.00352809
0.00352759
0.00352719
0.0035269
0.00352673
0.00352663
0.00352689
0.00352724
0.00352771
0.00352828
0.00352895
0.00352968
0.00353043
0.00353118
0.00353188
0.00353252
0.0035331
0.00353358
0.00353402
0.00353445
0.00353485
0.00353516
0.00353539
0.0035356
0.00353582
0.00353601
0.00353617
0.0035363
0.00353642
0.00353652
0.00353659
0.00353663
0.00353666
0.00353667
0.00353669
0.00353668
0.00341928
0.00341927
0.00341926
0.00341923
0.00341919
0.00341915
0.00341909
0.00341899
0.00341888
0.00341872
0.00341854
0.0034183
0.00341803
0.00341771
0.00341734
0.00341694
0.00341653
0.00341608
0.0034155
0.00341485
0.00341415
0.00341343
0.00341274
0.00341226
0.00341166
0.00341107
0.00341059
0.00341023
0.00341002
0.00340991
0.00341019
0.00341059
0.00341113
0.0034118
0.00341258
0.00341342
0.00341427
0.00341509
0.00341587
0.00341658
0.00341716
0.00341773
0.00341828
0.00341877
0.00341919
0.00341949
0.00341976
0.00342002
0.00342026
0.00342046
0.00342063
0.00342077
0.00342088
0.00342098
0.00342105
0.00342111
0.00342113
0.00342114
0.00342116
0.00342116
0.00331069
0.00331068
0.00331067
0.00331064
0.0033106
0.00331056
0.0033105
0.00331042
0.0033103
0.00331015
0.00330996
0.00330972
0.00330944
0.0033091
0.00330871
0.00330827
0.00330781
0.00330732
0.00330669
0.00330596
0.00330517
0.00330436
0.00330356
0.00330293
0.00330223
0.00330154
0.00330097
0.00330054
0.00330029
0.00330017
0.00330046
0.00330092
0.00330155
0.00330233
0.00330323
0.0033042
0.00330513
0.00330603
0.0033069
0.0033077
0.00330835
0.00330899
0.0033096
0.00331013
0.00331055
0.00331088
0.00331117
0.00331146
0.00331171
0.00331192
0.00331209
0.00331223
0.00331235
0.00331245
0.00331252
0.00331258
0.00331261
0.00331262
0.00331264
0.00331263
0.00320851
0.0032085
0.00320849
0.00320846
0.00320843
0.00320839
0.00320834
0.00320826
0.00320814
0.003208
0.00320781
0.00320757
0.00320729
0.00320694
0.00320653
0.00320607
0.00320557
0.00320502
0.00320435
0.00320355
0.00320268
0.00320176
0.00320084
0.00319999
0.00319933
0.00319853
0.00319785
0.00319735
0.00319704
0.00319689
0.00319719
0.00319771
0.00319843
0.00319933
0.00320037
0.00320148
0.00320244
0.00320341
0.00320431
0.00320518
0.00320598
0.00320671
0.00320735
0.00320788
0.00320831
0.00320868
0.00320901
0.00320932
0.00320958
0.00320979
0.00320996
0.00321011
0.00321022
0.00321033
0.0032104
0.00321045
0.00321048
0.0032105
0.00321051
0.0032105
0.00311221
0.00311219
0.00311218
0.00311216
0.00311214
0.0031121
0.00311206
0.00311198
0.00311188
0.00311174
0.00311156
0.00311132
0.00311104
0.0031107
0.00311028
0.00310979
0.00310923
0.00310862
0.00310793
0.0031071
0.00310616
0.00310514
0.00310412
0.00310355
0.00314925
0.00314846
0.00314773
0.00314718
0.00314683
0.00314665
0.00314695
0.00314749
0.00314825
0.00314921
0.00315033
0.00315151
0.00310625
0.00310674
0.00310773
0.00310869
0.00310956
0.00311034
0.003111
0.00311152
0.00311197
0.00311238
0.00311274
0.00311306
0.00311331
0.00311353
0.0031137
0.00311385
0.00311396
0.00311406
0.00311413
0.00311418
0.00311422
0.00311423
0.00311425
0.00311424
0.00302129
0.00302128
0.00302127
0.00302126
0.00302124
0.00302121
0.00302118
0.00302111
0.00302102
0.00302089
0.00302073
0.0030205
0.00302023
0.0030199
0.00301948
0.00301898
0.00301839
0.00301772
0.00301699
0.00301617
0.00301518
0.00301412
0.00301343
0.00305645
0.00305368
0.00305294
0.00305211
0.00305147
0.00305103
0.00305078
0.00305105
0.00305159
0.00305242
0.00305351
0.00305478
0.00305601
0.00305921
0.00301614
0.00301671
0.00301772
0.00301863
0.00301943
0.00302009
0.00302062
0.00302109
0.00302151
0.00302188
0.00302219
0.00302245
0.00302266
0.00302284
0.00302298
0.00302309
0.00302318
0.00302325
0.0030233
0.00302333
0.00302335
0.00302336
0.00302335
0.00293535
0.00293533
0.00293533
0.00293532
0.00293531
0.0029353
0.00293527
0.00293522
0.00293514
0.00293503
0.00293489
0.00293468
0.00293443
0.00293411
0.00293372
0.00293323
0.00293264
0.00293196
0.0029312
0.00293037
0.00292939
0.00292834
0.0029279
0.00296659
0.00296414
0.00298486
0.00298415
0.00298351
0.00298303
0.00298267
0.00298283
0.00298327
0.00298405
0.00298517
0.00298655
0.00296643
0.00296922
0.00293064
0.0029308
0.00293182
0.00293275
0.00293353
0.00293416
0.00293471
0.0029352
0.00293564
0.002936
0.0029363
0.00293656
0.00293676
0.00293693
0.00293706
0.00293717
0.00293726
0.00293733
0.00293738
0.0029374
0.00293742
0.00293744
0.00293742
0.00285397
0.00285396
0.00285396
0.00285396
0.00285396
0.00285396
0.00285395
0.00285392
0.00285386
0.00285377
0.00285365
0.00285348
0.00285325
0.00285297
0.0028526
0.00285214
0.00285158
0.00285092
0.00285016
0.00284933
0.00284843
0.0028475
0.00284739
0.00288214
0.00288041
0.00289848
0.00289863
0.00289817
0.00289764
0.00289709
0.0028968
0.00289677
0.00289721
0.00289817
0.00289954
0.00288256
0.00288426
0.00284998
0.00284968
0.00285062
0.00285151
0.00285224
0.00285288
0.00285344
0.00285394
0.00285436
0.00285471
0.002855
0.00285524
0.00285544
0.00285559
0.00285572
0.00285583
0.00285591
0.00285597
0.00285602
0.00285604
0.00285606
0.00285607
0.00285605
0.00277683
0.00277682
0.00277683
0.00277684
0.00277685
0.00277686
0.00277687
0.00277686
0.00277682
0.00277677
0.00277668
0.00277654
0.00277635
0.00277611
0.00277579
0.00277539
0.00277489
0.00277428
0.00277358
0.00277281
0.00277206
0.00277135
0.00277177
0.00280321
0.00280225
0.00281784
0.0028198
0.0028199
0.0028197
0.00281904
0.00281816
0.00281717
0.00281669
0.00281695
0.00281805
0.00280407
0.00280417
0.00277384
0.002773
0.00277377
0.00277458
0.00277528
0.00277591
0.00277646
0.00277693
0.00277733
0.00277766
0.00277793
0.00277816
0.00277834
0.00277849
0.00277861
0.0027787
0.00277878
0.00277884
0.00277888
0.00277891
0.00277891
0.00277893
0.00277891
0.0027036
0.00270359
0.00270361
0.00270363
0.00270365
0.00270368
0.00270371
0.00270372
0.00270372
0.00270369
0.00270364
0.00270355
0.00270342
0.00270324
0.00270299
0.00270266
0.00270225
0.00270176
0.0027012
0.0027006
0.00270011
0.00269975
0.00270105
0.00272995
0.00272996
0.00274437
0.0027495
0.0027517
0.00275338
0.00275352
0.00275151
0.00274779
0.00274434
0.00274223
0.00274199
0.00273139
0.00272878
0.00270192
0.00270048
0.00270097
0.0027017
0.00270235
0.00270293
0.00270344
0.00270387
0.00270423
0.00270453
0.00270479
0.00270499
0.00270516
0.00270529
0.0027054
0.00270549
0.00270556
0.00270562
0.00270565
0.00270567
0.00270568
0.00270569
0.00270567
0.002634
0.00263399
0.00263401
0.00263405
0.00263408
0.00263413
0.00263418
0.00263422
0.00263425
0.00263427
0.00263426
0.00263423
0.00263416
0.00263405
0.00263389
0.00263367
0.00263339
0.00263307
0.00263273
0.00263244
0.00263241
0.00263266
0.00263548
0.00266278
0.00266434
0.00268022
0.00269256
0.00270181
0.00271249
0.0027187
0.00271394
0.00269997
0.00268568
0.00267625
0.00267184
0.0026646
0.00265795
0.00263394
0.00263195
0.00263206
0.00263262
0.00263316
0.00263365
0.00263408
0.00263446
0.00263478
0.00263505
0.00263527
0.00263545
0.0026356
0.00263572
0.00263582
0.0026359
0.00263597
0.00263601
0.00263604
0.00263606
0.00263607
0.00263608
0.00263605
0.00256777
0.00256776
0.00256779
0.00256784
0.00256789
0.00256796
0.00256803
0.0025681
0.00256817
0.00256823
0.00256828
0.0025683
0.00256831
0.00256829
0.00256824
0.00256816
0.00256806
0.00256796
0.00256793
0.00256809
0.00256878
0.0025701
0.00257547
0.00260232
0.00260722
0.00263052
0.00265851
0.0026939
0.00275047
0.00280061
0.00278609
0.00271866
0.00265827
0.00262457
0.00260923
0.00260353
0.00259174
0.00256958
0.00256716
0.00256676
0.00256706
0.00256742
0.00256778
0.00256813
0.00256844
0.0025687
0.00256893
0.00256912
0.00256929
0.00256942
0.00256952
0.00256961
0.00256967
0.00256973
0.00256977
0.0025698
0.00256981
0.00256982
0.00256983
0.0025698
0.00250468
0.00250467
0.00250471
0.00250476
0.00250483
0.00250492
0.00250502
0.00250512
0.00250523
0.00250534
0.00250544
0.00250554
0.00250563
0.00250572
0.00250579
0.00250588
0.00250599
0.00250619
0.00250657
0.00250733
0.00250899
0.00251208
0.00252159
0.00254948
0.00256202
0.00260247
0.0026663
0.00279026
0.00293914
0.00306535
0.00304779
0.00290105
0.00272058
0.00260133
0.00255787
0.00254706
0.00253032
0.00250861
0.00250584
0.0025048
0.00250474
0.00250486
0.00250508
0.00250532
0.00250555
0.00250576
0.00250595
0.00250611
0.00250625
0.00250636
0.00250645
0.00250652
0.00250658
0.00250663
0.00250667
0.00250669
0.0025067
0.0025067
0.00250671
0.00250668
0.0024445
0.0024445
0.00244454
0.00244461
0.00244469
0.0024448
0.00244493
0.00244506
0.00244521
0.00244537
0.00244554
0.00244571
0.0024459
0.0024461
0.00244632
0.00244659
0.00244696
0.00244751
0.00244839
0.00244991
0.00245281
0.00245849
0.002474
0.00250498
0.00253384
0.00260387
0.00274135
0.00296024
0.00331472
0.00416061
0.00406467
0.00334291
0.002905
0.00263637
0.00252351
0.00249386
0.00247405
0.00245057
0.00244764
0.00244589
0.0024454
0.00244525
0.00244529
0.00244542
0.00244557
0.00244573
0.00244587
0.002446
0.00244611
0.00244621
0.00244628
0.00244635
0.0024464
0.00244644
0.00244647
0.00244649
0.0024465
0.0024465
0.0024465
0.00244648
0.00238705
0.00238705
0.0023871
0.00238718
0.00238728
0.00238741
0.00238756
0.00238773
0.00238792
0.00238813
0.00238836
0.00238861
0.0023889
0.00238922
0.00238961
0.00239009
0.00239074
0.00239168
0.00239313
0.00239553
0.0023999
0.00240902
0.00243233
0.00246878
0.00252656
0.00263811
0.00287404
0.00318358
0.00497741
0.00483864
0.00318989
0.00275309
0.00251222
0.00244233
0.00242254
0.00239513
0.00239221
0.00238974
0.00238875
0.00238831
0.00238818
0.00238819
0.00238827
0.00238837
0.00238848
0.00238858
0.00238867
0.00238875
0.00238882
0.00238887
0.00238892
0.00238896
0.00238899
0.002389
0.00238901
0.00238902
0.00238902
0.002389
0.00233214
0.00233214
0.0023322
0.00233229
0.00233241
0.00233256
0.00233274
0.00233294
0.00233317
0.00233343
0.00233373
0.00233406
0.00233444
0.0023349
0.00233545
0.00233615
0.0023371
0.00233846
0.00234053
0.00234388
0.00234983
0.00236294
0.00239534
0.00243987
0.00253985
0.00270429
0.00306678
0.00390074
0.0420593
0.0922417
0.0624045
0.0035246
0.00291824
0.00252183
0.00239211
0.00237519
0.0023422
0.00233934
0.00233615
0.00233464
0.00233391
0.0023336
0.0023335
0.00233351
0.00233356
0.00233364
0.00233372
0.00233379
0.00233386
0.00233391
0.00233396
0.002334
0.00233403
0.00233406
0.00233407
0.00233408
0.00233408
0.00233409
0.00233406
0.00227961
0.00227962
0.00227968
0.00227978
0.00227991
0.00228008
0.00228029
0.00228052
0.00228079
0.0022811
0.00228146
0.00228187
0.00228235
0.00228294
0.00228365
0.00228457
0.00228582
0.00228761
0.0022903
0.00229459
0.00230207
0.0023192
0.00236085
0.00241542
0.00256372
0.00279687
0.00345697
0.025268
0.57552
0.906827
0.570671
0.0790699
0.00386273
0.00308437
0.00254007
0.00234468
0.00233109
0.0022917
0.00228871
0.00228484
0.00228282
0.00228182
0.00228136
0.00228116
0.00228111
0.00228112
0.00228117
0.00228123
0.00228129
0.00228134
0.00228139
0.00228143
0.00228146
0.00228149
0.00228151
0.00228153
0.00228153
0.00228154
0.00228154
0.00228151
0.00222931
0.00222932
0.00222939
0.0022295
0.00222965
0.00222983
0.00223006
0.00223032
0.00223063
0.00223099
0.00223141
0.00223189
0.00223247
0.00223317
0.00223405
0.00223518
0.00223672
0.00223889
0.00224215
0.0022473
0.0022561
0.00227668
0.00232628
0.00239077
0.00257795
0.00288199
0.00389116
0.0352205
0.574894
1.29517
0.482553
0.0468656
0.00427382
0.00319927
0.00255384
0.00230437
0.00228911
0.00224383
0.00224009
0.00223557
0.00223308
0.00223185
0.00223126
0.00223099
0.00223089
0.00223088
0.00223091
0.00223095
0.002231
0.00223105
0.0022311
0.00223113
0.00223116
0.00223119
0.0022312
0.00223122
0.00223122
0.00223122
0.00223122
0.00223119
0.0021811
0.00218111
0.00218119
0.00218131
0.00218146
0.00218167
0.00218192
0.00218221
0.00218255
0.00218295
0.00218342
0.00218397
0.00218463
0.00218545
0.00218647
0.00218778
0.00218956
0.00219207
0.00219582
0.00220172
0.00221159
0.00223463
0.00229027
0.00236194
0.00256943
0.00292363
0.00411022
0.0282837
0.406645
1.23433
0.304371
0.0198699
0.00457012
0.00324018
0.00254868
0.00227297
0.00224827
0.00219872
0.00219331
0.00218814
0.00218526
0.00218385
0.00218316
0.00218285
0.00218272
0.00218269
0.00218271
0.00218275
0.0021828
0.00218285
0.00218289
0.00218292
0.00218295
0.00218297
0.00218299
0.002183
0.002183
0.002183
0.002183
0.00218297
0.00213486
0.00213487
0.00213495
0.00213508
0.00213524
0.00213546
0.00213573
0.00213604
0.00213641
0.00213685
0.00213736
0.00213797
0.00213871
0.00213961
0.00214074
0.00214219
0.00214417
0.00214702
0.00215122
0.00215775
0.00216845
0.00219309
0.00225235
0.0023277
0.00253949
0.00291206
0.00411783
0.0205645
0.266443
0.853253
0.176858
0.0110041
0.00459976
0.00320275
0.00252199
0.00224826
0.00220797
0.00215644
0.00214832
0.00214242
0.00213922
0.00213768
0.00213694
0.0021366
0.00213647
0.00213645
0.00213647
0.00213651
0.00213656
0.00213661
0.00213665
0.00213668
0.0021367
0.00213673
0.00213674
0.00213675
0.00213675
0.00213675
0.00213675
0.00213672
0.00209046
0.00209047
0.00209056
0.00209069
0.00209087
0.00209109
0.00209137
0.00209171
0.0020921
0.00209257
0.00209312
0.00209377
0.00209456
0.0020955
0.00209672
0.00209834
0.00210056
0.00210369
0.00210825
0.00211523
0.00212653
0.00215195
0.00221281
0.00228874
0.00249542
0.00286533
0.00400918
0.0155481
0.193565
0.603652
0.116779
0.00817133
0.00448072
0.00312245
0.00247612
0.00222599
0.00216837
0.00211674
0.00210507
0.00209827
0.00209486
0.00209322
0.00209245
0.00209215
0.00209204
0.00209203
0.00209206
0.00209211
0.00209216
0.00209221
0.00209225
0.00209229
0.00209231
0.00209233
0.00209235
0.00209236
0.00209236
0.00209235
0.00209236
0.00209232
0.0020478
0.00204781
0.0020479
0.00204804
0.00204822
0.00204846
0.00204875
0.00204909
0.00204951
0.00204999
0.00205056
0.00205124
0.00205205
0.00205307
0.0020544
0.00205616
0.00205855
0.0020619
0.00206674
0.00207403
0.00208577
0.00211135
0.00217233
0.00224703
0.0024444
0.00280871
0.00385558
0.0124567
0.155164
0.446426
0.0876001
0.00707349
0.00433311
0.00304195
0.00242703
0.00220148
0.00212978
0.00207967
0.00206359
0.00205571
0.0020522
0.00205049
0.0020497
0.00204939
0.00204931
0.00204932
0.00204938
0.00204944
0.0020495
0.00204956
0.0020496
0.00204964
0.00204966
0.00204968
0.0020497
0.00204971
0.00204971
0.0020497
0.00204971
0.00204967
0.00200678
0.00200679
0.00200688
0.00200702
0.00200721
0.00200745
0.00200775
0.00200811
0.00200853
0.00200902
0.00200958
0.00201027
0.00201114
0.00201224
0.00201365
0.00201551
0.00201802
0.00202154
0.00202661
0.00203409
0.00204614
0.00207153
0.00213178
0.00220388
0.00239052
0.00275135
0.00369857
0.0103898
0.128421
0.338417
0.0753227
0.00649939
0.00420408
0.0029915
0.00238854
0.00217096
0.00209286
0.00204482
0.00202396
0.00201488
0.00201117
0.00200938
0.0020086
0.00200827
0.00200819
0.00200823
0.00200833
0.00200841
0.00200849
0.00200855
0.0020086
0.00200863
0.00200866
0.00200868
0.0020087
0.0020087
0.0020087
0.0020087
0.0020087
0.00200866
0.00196731
0.00196732
0.00196741
0.00196755
0.00196774
0.00196799
0.00196829
0.00196865
0.00196906
0.00196954
0.00197012
0.00197085
0.00197175
0.00197289
0.00197435
0.00197628
0.00197889
0.00198253
0.00198778
0.00199536
0.00200768
0.00203271
0.00209164
0.00216071
0.00233698
0.00269298
0.00355217
0.00877816
0.103987
0.264291
0.115068
0.00623134
0.00412104
0.00301672
0.00238955
0.00213048
0.0020599
0.00201192
0.00198612
0.00197576
0.0019718
0.00196983
0.00196905
0.00196875
0.00196867
0.00196871
0.00196882
0.00196894
0.00196903
0.0019691
0.00196915
0.00196919
0.00196922
0.00196924
0.00196925
0.00196926
0.00196926
0.00196925
0.00196925
0.00196921
0.0019293
0.00192931
0.00192941
0.00192955
0.00192974
0.00192998
0.00193027
0.00193062
0.00193103
0.00193151
0.00193212
0.00193285
0.00193377
0.00193493
0.00193643
0.0019384
0.00194109
0.0019448
0.0019502
0.00195783
0.00197047
0.00199502
0.00205242
0.00211852
0.00228561
0.00263241
0.00342487
0.00747694
0.0802208
0.214464
0.164016
0.0136368
0.00485598
0.00345035
0.00256184
0.0021028
0.0020351
0.00198046
0.00195003
0.00193834
0.001934
0.00193188
0.00193099
0.0019307
0.00193064
0.00193069
0.0019308
0.00193092
0.00193104
0.00193112
0.00193117
0.00193121
0.00193124
0.00193126
0.00193127
0.00193128
0.00193128
0.00193127
0.00193127
0.00193123
0.00189268
0.00189269
0.00189278
0.00189292
0.00189311
0.00189334
0.00189362
0.00189395
0.00189437
0.00189487
0.00189547
0.00189621
0.00189713
0.0018983
0.0018998
0.0019018
0.00190454
0.0019083
0.00191384
0.00192153
0.00193448
0.00195854
0.00201467
0.00207815
0.00223772
0.00257421
0.00332677
0.00642313
0.0583137
0.176997
0.174198
0.050226
0.00821171
0.00491563
0.00333938
0.00222191
0.00201676
0.00194997
0.00191559
0.00190259
0.0018977
0.00189543
0.00189444
0.00189408
0.00189399
0.00189404
0.00189418
0.00189431
0.00189443
0.00189453
0.00189459
0.00189463
0.00189466
0.00189468
0.00189469
0.00189469
0.00189469
0.00189469
0.00189468
0.00189464
0.00185737
0.00185738