/*--------------------------------*- C++ -*----------------------------------*\
  =========                 |
  \\      /  F ield         | OpenFOAM: The Open Source CFD Toolbox
   \\    /   O peration     | Website:  https://openfoam.org
    \\  /    A nd           | Version:  12
     \\/     M anipulation  |
\*---------------------------------------------------------------------------*/
FoamFile
{
    format      ascii;
    class       volScalarField;
    location    "420";
    object      nut;
}
// * * * * * * * * * * * * * * * * * * * * * * * * * * * * * * * * * * * * * //

dimensions      [0 2 -1 0 0 0 0];

internalField   nonuniform List<scalar> 
16227
(
0.000978543
0.000978543
0.000978543
0.000978543
0.000978543
0.000978543
0.000978543
0.000978543
0.000978543
0.000978543
0.000978543
0.000978543
0.000978544
0.000978544
0.000978544
0.000978544
0.000978544
0.000978544
0.000978544
0.000978544
0.000978544
0.000978544
0.000978544
0.000978544
0.000978544
0.000978544
0.000978544
0.000978544
0.000978544
0.000978544
0.000978544
0.000978544
0.000978544
0.000978544
0.000978544
0.000978544
0.000978544
0.000978544
0.000978544
0.000978544
0.000978544
0.000978544
0.000978544
0.000978544
0.000978544
0.000978544
0.000978544
0.000978544
0.000978544
0.000978544
0.000978544
0.000978543
0.000978543
0.000978543
0.000978543
0.000978543
0.000978543
0.000978543
0.000978543
0.000978543
0.000972834
0.000972834
0.000972834
0.000972834
0.000972834
0.000972834
0.000972834
0.000972834
0.000972834
0.000972834
0.000972835
0.000972835
0.000972836
0.000972836
0.000972836
0.000972836
0.000972836
0.000972836
0.000972836
0.000972836
0.000972837
0.000972837
0.000972837
0.000972837
0.000972837
0.000972837
0.000972837
0.000972837
0.000972836
0.000972836
0.000972837
0.000972837
0.000972837
0.000972837
0.000972837
0.000972837
0.000972837
0.000972837
0.000972837
0.000972837
0.000972837
0.000972837
0.000972837
0.000972837
0.000972837
0.000972836
0.000972836
0.000972836
0.000972837
0.000972836
0.000972836
0.000972836
0.000972835
0.000972835
0.000972834
0.000972834
0.000972835
0.000972834
0.000972834
0.000972834
0.000967494
0.000967494
0.000967494
0.000967494
0.000967494
0.000967495
0.000967494
0.000967494
0.000967494
0.000967494
0.000967495
0.000967495
0.000967497
0.000967498
0.000967498
0.000967498
0.000967498
0.000967498
0.000967498
0.000967497
0.000967498
0.000967498
0.000967498
0.000967498
0.000967498
0.000967498
0.000967498
0.000967498
0.000967498
0.000967497
0.000967498
0.000967498
0.000967498
0.000967498
0.000967498
0.000967498
0.000967498
0.000967498
0.000967498
0.000967498
0.000967498
0.000967498
0.000967498
0.000967498
0.000967498
0.000967498
0.000967498
0.000967498
0.000967498
0.000967498
0.000967497
0.000967496
0.000967495
0.000967495
0.000967495
0.000967495
0.000967495
0.000967494
0.000967494
0.000967494
0.000962481
0.000962481
0.000962481
0.000962481
0.000962481
0.000962482
0.000962482
0.000962481
0.000962481
0.000962481
0.000962482
0.000962482
0.000962485
0.000962485
0.000962485
0.000962486
0.000962486
0.000962486
0.000962485
0.000962484
0.000962485
0.000962485
0.000962485
0.000962485
0.000962485
0.000962485
0.000962485
0.000962485
0.000962485
0.000962485
0.000962485
0.000962486
0.000962486
0.000962486
0.000962486
0.000962486
0.000962486
0.000962486
0.000962486
0.000962486
0.000962486
0.000962486
0.000962486
0.000962487
0.000962487
0.000962486
0.000962486
0.000962486
0.000962487
0.000962486
0.000962485
0.000962483
0.000962482
0.000962482
0.000962483
0.000962483
0.000962482
0.000962482
0.000962482
0.000962482
0.000957759
0.000957759
0.000957759
0.00095776
0.00095776
0.00095776
0.00095776
0.00095776
0.00095776
0.00095776
0.00095776
0.000957761
0.000957763
0.000957764
0.000957765
0.000957764
0.000957765
0.000957764
0.000957762
0.000957761
0.000957763
0.000957764
0.000957764
0.000957764
0.000957764
0.000957764
0.000957764
0.000957764
0.000957763
0.000957763
0.000957764
0.000957764
0.000957764
0.000957764
0.000957765
0.000957765
0.000957765
0.000957765
0.000957766
0.000957766
0.000957766
0.000957766
0.000957766
0.000957766
0.000957766
0.000957766
0.000957766
0.000957766
0.000957767
0.000957766
0.000957763
0.000957762
0.000957761
0.000957762
0.000957762
0.000957762
0.000957762
0.000957761
0.000957761
0.000957761
0.000953299
0.000953299
0.000953299
0.000953299
0.000953299
0.0009533
0.0009533
0.0009533
0.0009533
0.000953299
0.000953299
0.0009533
0.000953301
0.000953304
0.000953304
0.000953305
0.000953304
0.000953303
0.000953301
0.0009533
0.000953302
0.000953303
0.000953303
0.000953303
0.000953303
0.000953303
0.000953303
0.000953302
0.000953302
0.000953301
0.000953303
0.000953303
0.000953303
0.000953304
0.000953304
0.000953305
0.000953305
0.000953305
0.000953306
0.000953306
0.000953306
0.000953307
0.000953307
0.000953307
0.000953307
0.000953308
0.000953308
0.000953308
0.000953308
0.000953306
0.000953304
0.000953303
0.000953302
0.000953303
0.000953303
0.000953303
0.000953303
0.000953302
0.000953302
0.000953302
0.000949075
0.000949075
0.000949075
0.000949075
0.000949075
0.000949075
0.000949076
0.000949076
0.000949075
0.000949075
0.000949075
0.000949074
0.000949075
0.000949078
0.00094908
0.00094908
0.000949079
0.000949076
0.000949074
0.000949074
0.000949077
0.000949077
0.000949077
0.000949077
0.000949077
0.000949076
0.000949076
0.000949076
0.000949076
0.000949075
0.000949076
0.000949077
0.000949077
0.000949078
0.000949079
0.000949079
0.00094908
0.000949081
0.000949081
0.000949082
0.000949082
0.000949083
0.000949083
0.000949084
0.000949084
0.000949085
0.000949085
0.000949085
0.000949084
0.000949081
0.00094908
0.000949079
0.000949079
0.00094908
0.00094908
0.00094908
0.00094908
0.000949079
0.000949079
0.000949079
0.000945064
0.000945064
0.000945064
0.000945064
0.000945064
0.000945064
0.000945065
0.000945065
0.000945064
0.000945064
0.000945063
0.000945062
0.000945063
0.000945064
0.000945068
0.000945068
0.000945067
0.000945063
0.000945062
0.000945061
0.000945064
0.000945064
0.000945064
0.000945063
0.000945063
0.000945063
0.000945063
0.000945062
0.000945062
0.000945061
0.000945063
0.000945063
0.000945064
0.000945065
0.000945066
0.000945067
0.000945068
0.000945069
0.00094507
0.000945071
0.000945072
0.000945072
0.000945073
0.000945074
0.000945074
0.000945075
0.000945075
0.000945075
0.000945074
0.000945071
0.00094507
0.000945069
0.00094507
0.000945071
0.000945071
0.000945071
0.00094507
0.00094507
0.00094507
0.00094507
0.000941248
0.000941248
0.000941248
0.000941248
0.000941248
0.000941248
0.000941248
0.000941248
0.000941248
0.000941247
0.000941246
0.000941245
0.000941245
0.000941246
0.00094125
0.000941251
0.000941249
0.000941244
0.000941243
0.000941242
0.000941245
0.000941245
0.000941244
0.000941243
0.000941243
0.000941242
0.000941242
0.000941242
0.000941241
0.00094124
0.000941242
0.000941243
0.000941244
0.000941245
0.000941246
0.000941247
0.000941249
0.00094125
0.000941252
0.000941253
0.000941254
0.000941255
0.000941256
0.000941257
0.000941258
0.000941259
0.00094126
0.000941259
0.000941256
0.000941255
0.000941254
0.000941255
0.000941255
0.000941256
0.000941256
0.000941256
0.000941256
0.000941255
0.000941255
0.000941255
0.000937609
0.000937609
0.000937609
0.000937609
0.000937608
0.000937608
0.000937609
0.000937608
0.000937608
0.000937607
0.000937606
0.000937605
0.000937604
0.000937605
0.000937609
0.00093761
0.000937605
0.000937602
0.000937601
0.0009376
0.000937602
0.000937602
0.000937601
0.0009376
0.000937599
0.000937598
0.000937598
0.000937598
0.000937597
0.000937596
0.000937598
0.000937599
0.0009376
0.000937602
0.000937603
0.000937605
0.000937607
0.000937608
0.00093761
0.000937612
0.000937614
0.000937615
0.000937617
0.000937619
0.00093762
0.000937621
0.000937622
0.000937621
0.000937617
0.000937616
0.000937616
0.000937617
0.000937618
0.000937618
0.000937619
0.000937619
0.000937618
0.000937618
0.000937618
0.000937618
0.000934133
0.000934133
0.000934133
0.000934132
0.000934132
0.000934132
0.000934132
0.000934132
0.000934131
0.00093413
0.000934129
0.000934127
0.000934126
0.000934126
0.000934127
0.00093413
0.000934125
0.000934122
0.000934121
0.00093412
0.000934121
0.000934121
0.00093412
0.000934118
0.000934117
0.000934116
0.000934115
0.000934115
0.000934114
0.000934113
0.000934115
0.000934117
0.000934118
0.00093412
0.000934122
0.000934124
0.000934126
0.000934129
0.000934131
0.000934133
0.000934136
0.000934138
0.00093414
0.000934142
0.000934143
0.000934145
0.000934145
0.000934143
0.000934142
0.000934141
0.000934141
0.000934142
0.000934143
0.000934144
0.000934144
0.000934144
0.000934144
0.000934144
0.000934144
0.000934144
0.000930806
0.000930806
0.000930806
0.000930806
0.000930805
0.000930805
0.000930805
0.000930805
0.000930804
0.000930803
0.000930801
0.0009308
0.000930798
0.000930797
0.000930797
0.000930799
0.000930795
0.000930792
0.00093079
0.000930788
0.000930787
0.000930788
0.000930787
0.000930785
0.000930784
0.000930782
0.000930781
0.00093078
0.00093078
0.000930779
0.000930781
0.000930782
0.000930784
0.000930786
0.000930789
0.000930791
0.000930794
0.000930797
0.0009308
0.000930803
0.000930806
0.000930809
0.000930812
0.000930814
0.000930816
0.000930818
0.000930816
0.000930816
0.000930816
0.000930815
0.000930816
0.000930817
0.000930818
0.000930819
0.000930819
0.00093082
0.000930819
0.000930819
0.000930819
0.000930819
0.000927618
0.000927618
0.000927618
0.000927617
0.000927617
0.000927617
0.000927616
0.000927616
0.000927615
0.000927613
0.000927612
0.00092761
0.000927608
0.000927606
0.000927604
0.000927604
0.000927602
0.0009276
0.000927597
0.000927595
0.000927592
0.000927594
0.000927592
0.00092759
0.000927587
0.000927585
0.000927584
0.000927583
0.000927582
0.000927581
0.000927583
0.000927585
0.000927587
0.00092759
0.000927593
0.000927596
0.0009276
0.000927604
0.000927607
0.000927611
0.000927615
0.000927618
0.000927622
0.000927625
0.000927627
0.000927628
0.000927627
0.000927628
0.000927628
0.000927628
0.000927629
0.00092763
0.000927631
0.000927632
0.000927633
0.000927633
0.000927633
0.000927633
0.000927633
0.000927633
0.000924557
0.000924557
0.000924557
0.000924557
0.000924556
0.000924556
0.000924555
0.000924555
0.000924554
0.000924552
0.00092455
0.000924548
0.000924546
0.000924543
0.000924541
0.000924539
0.000924538
0.000924535
0.000924532
0.000924529
0.000924525
0.000924526
0.000924524
0.000924521
0.000924518
0.000924516
0.000924514
0.000924512
0.000924511
0.00092451
0.000924512
0.000924514
0.000924517
0.00092452
0.000924524
0.000924528
0.000924532
0.000924537
0.000924541
0.000924546
0.00092455
0.000924555
0.000924559
0.000924562
0.000924564
0.000924565
0.000924566
0.000924567
0.000924567
0.000924568
0.000924569
0.000924571
0.000924572
0.000924573
0.000924574
0.000924575
0.000924575
0.000924575
0.000924575
0.000924575
0.000921616
0.000921616
0.000921615
0.000921615
0.000921615
0.000921614
0.000921614
0.000921613
0.000921611
0.00092161
0.000921608
0.000921605
0.000921602
0.000921599
0.000921596
0.000921594
0.000921593
0.000921589
0.000921585
0.000921581
0.000921577
0.000921577
0.000921574
0.00092157
0.000921567
0.000921563
0.000921561
0.000921559
0.000921558
0.000921556
0.000921559
0.000921561
0.000921564
0.000921568
0.000921572
0.000921577
0.000921582
0.000921588
0.000921593
0.000921599
0.000921604
0.000921609
0.000921614
0.000921617
0.000921618
0.000921621
0.000921623
0.000921625
0.000921626
0.000921627
0.000921629
0.00092163
0.000921632
0.000921633
0.000921634
0.000921635
0.000921635
0.000921635
0.000921635
0.000921635
0.000918785
0.000918785
0.000918784
0.000918784
0.000918783
0.000918783
0.000918782
0.000918781
0.00091878
0.000918778
0.000918775
0.000918773
0.000918769
0.000918766
0.000918763
0.00091876
0.000918758
0.000918754
0.000918748
0.000918744
0.000918739
0.000918737
0.000918734
0.000918729
0.000918725
0.000918721
0.000918718
0.000918716
0.000918714
0.000918712
0.000918715
0.000918717
0.000918721
0.000918725
0.00091873
0.000918736
0.000918742
0.000918748
0.000918755
0.000918761
0.000918768
0.000918774
0.000918779
0.000918783
0.000918784
0.000918787
0.00091879
0.000918792
0.000918794
0.000918796
0.000918798
0.0009188
0.000918802
0.000918803
0.000918804
0.000918805
0.000918805
0.000918805
0.000918806
0.000918805
0.000916057
0.000916057
0.000916056
0.000916056
0.000916055
0.000916055
0.000916054
0.000916053
0.000916051
0.000916049
0.000916047
0.000916044
0.00091604
0.000916036
0.000916032
0.000916029
0.000916026
0.000916021
0.000916016
0.000916009
0.000916004
0.000915999
0.000915996
0.000915992
0.000915986
0.000915982
0.000915978
0.000915975
0.000915973
0.000915971
0.000915973
0.000915976
0.00091598
0.000915984
0.00091599
0.000915997
0.000916004
0.000916011
0.000916019
0.000916027
0.000916034
0.000916041
0.000916046
0.000916049
0.000916053
0.000916057
0.000916061
0.000916063
0.000916065
0.000916068
0.00091607
0.000916072
0.000916074
0.000916076
0.000916077
0.000916078
0.000916079
0.000916079
0.000916079
0.000916079
0.000913426
0.000913425
0.000913425
0.000913425
0.000913424
0.000913423
0.000913423
0.000913421
0.00091342
0.000913418
0.000913415
0.000913411
0.000913408
0.000913404
0.000913399
0.000913395
0.000913392
0.000913386
0.00091338
0.000913372
0.000913365
0.000913359
0.000913356
0.000913351
0.000913344
0.000913339
0.000913334
0.000913331
0.000913328
0.000913326
0.000913328
0.000913331
0.000913335
0.00091334
0.000913347
0.000913354
0.000913362
0.000913371
0.00091338
0.000913388
0.000913396
0.000913403
0.000913407
0.000913413
0.000913418
0.000913423
0.000913427
0.00091343
0.000913433
0.000913436
0.000913439
0.000913441
0.000913443
0.000913445
0.000913447
0.000913448
0.000913448
0.000913448
0.000913449
0.000913449
0.000910885
0.000910884
0.000910884
0.000910884
0.000910883
0.000910882
0.000910882
0.00091088
0.000910879
0.000910876
0.000910874
0.00091087
0.000910866
0.000910862
0.000910857
0.000910853
0.000910849
0.000910842
0.000910835
0.000910827
0.000910819
0.000910812
0.000910807
0.000910801
0.000910794
0.000910788
0.000910782
0.000910778
0.000910775
0.000910772
0.000910775
0.000910778
0.000910782
0.000910787
0.000910794
0.000910803
0.000910811
0.000910821
0.00091083
0.00091084
0.000910849
0.000910856
0.000910861
0.000910867
0.000910874
0.000910879
0.000910883
0.000910887
0.000910891
0.000910894
0.000910897
0.0009109
0.000910902
0.000910904
0.000910906
0.000910907
0.000910907
0.000910908
0.000910908
0.000910908
0.000908429
0.000908428
0.000908428
0.000908428
0.000908427
0.000908427
0.000908426
0.000908425
0.000908423
0.000908421
0.000908418
0.000908414
0.00090841
0.000908406
0.000908401
0.000908396
0.000908391
0.000908385
0.000908377
0.000908368
0.000908359
0.000908351
0.000908343
0.000908339
0.000908331
0.000908324
0.000908318
0.000908314
0.00090831
0.000908307
0.000908309
0.000908312
0.000908316
0.000908322
0.000908329
0.000908338
0.000908347
0.000908357
0.000908366
0.000908376
0.000908384
0.000908392
0.000908399
0.000908407
0.000908414
0.00090842
0.000908424
0.000908429
0.000908433
0.000908437
0.00090844
0.000908443
0.000908446
0.000908448
0.00090845
0.000908451
0.000908451
0.000908452
0.000908452
0.000908452
0.000906053
0.000906052
0.000906052
0.000906052
0.000906051
0.000906051
0.00090605
0.000906049
0.000906048
0.000906046
0.000906043
0.00090604
0.000906035
0.000906031
0.000906026
0.00090602
0.000906015
0.000906009
0.000906001
0.000905993
0.000905983
0.000905974
0.000905966
0.000905961
0.000905954
0.000905946
0.000905941
0.000905936
0.000905933
0.000905929
0.000905931
0.000905934
0.000905937
0.000905942
0.000905949
0.000905957
0.000905965
0.000905974
0.000905983
0.000905993
0.000906001
0.000906009
0.000906018
0.000906027
0.000906035
0.00090604
0.000906045
0.00090605
0.000906055
0.00090606
0.000906063
0.000906066
0.000906069
0.000906071
0.000906073
0.000906074
0.000906075
0.000906075
0.000906076
0.000906076
0.000903752
0.000903752
0.000903752
0.000903751
0.000903751
0.000903751
0.00090375
0.00090375
0.000903748
0.000903746
0.000903744
0.000903741
0.000903737
0.000903733
0.000903728
0.000903722
0.000903717
0.000903712
0.000903705
0.000903697
0.000903688
0.00090368
0.000903671
0.000903666
0.000903659
0.000903653
0.000903649
0.000903646
0.000903644
0.000903641
0.000903642
0.000903644
0.000903646
0.000903649
0.000903654
0.00090366
0.000903665
0.00090367
0.000903678
0.000903687
0.000903695
0.000903704
0.000903714
0.000903723
0.00090373
0.000903736
0.000903742
0.000903747
0.000903753
0.000903757
0.000903761
0.000903764
0.000903767
0.000903769
0.000903771
0.000903772
0.000903773
0.000903774
0.000903774
0.000903774
0.000901522
0.000901522
0.000901522
0.000901522
0.000901522
0.000901522
0.000901522
0.000901521
0.000901521
0.000901519
0.000901517
0.000901515
0.000901512
0.000901508
0.000901504
0.000901499
0.000901494
0.00090149
0.000901485
0.000901479
0.000901472
0.000901466
0.000901461
0.000901455
0.000901457
0.000901455
0.000901455
0.000901457
0.000901457
0.000901454
0.000901453
0.000901451
0.000901448
0.000901447
0.000901447
0.000901449
0.000901445
0.000901444
0.000901447
0.000901454
0.000901463
0.000901472
0.000901482
0.00090149
0.000901497
0.000901503
0.000901509
0.000901515
0.000901521
0.000901525
0.000901529
0.000901532
0.000901535
0.000901538
0.000901539
0.000901541
0.000901542
0.000901542
0.000901543
0.000901542
0.00089936
0.00089936
0.00089936
0.00089936
0.00089936
0.000899361
0.000899361
0.000899361
0.000899361
0.00089936
0.000899359
0.000899357
0.000899355
0.000899353
0.00089935
0.000899346
0.000899343
0.000899341
0.000899339
0.000899337
0.000899336
0.000899337
0.000899339
0.00089935
0.000900357
0.000900364
0.000900369
0.000900375
0.000900378
0.000900376
0.000900373
0.000900367
0.000900359
0.000900352
0.000900347
0.000900344
0.000899322
0.000899293
0.00089929
0.000899294
0.000899301
0.000899309
0.000899318
0.000899324
0.000899331
0.000899338
0.000899344
0.00089935
0.000899356
0.00089936
0.000899364
0.000899367
0.00089937
0.000899373
0.000899375
0.000899376
0.000899377
0.000899377
0.000899378
0.000899377
0.000897261
0.000897261
0.000897261
0.000897262
0.000897262
0.000897263
0.000897264
0.000897265
0.000897265
0.000897266
0.000897266
0.000897265
0.000897265
0.000897264
0.000897263
0.000897262
0.000897262
0.000897263
0.000897267
0.000897274
0.000897283
0.0008973
0.00089732
0.000898301
0.000898251
0.000898274
0.000898299
0.000898323
0.000898338
0.000898338
0.000898328
0.000898307
0.000898282
0.000898257
0.000898236
0.000898208
0.000898256
0.000897237
0.000897206
0.000897204
0.000897208
0.000897213
0.000897219
0.000897225
0.000897231
0.000897237
0.000897243
0.000897249
0.000897254
0.000897259
0.000897262
0.000897266
0.000897268
0.000897271
0.000897273
0.000897274
0.000897275
0.000897275
0.000897276
0.000897275
0.000895223
0.000895222
0.000895223
0.000895224
0.000895225
0.000895226
0.000895228
0.00089523
0.000895231
0.000895233
0.000895234
0.000895236
0.000895237
0.000895239
0.000895241
0.000895245
0.000895249
0.000895257
0.00089527
0.000895289
0.000895318
0.000895363
0.0008954
0.000896297
0.000896303
0.000896794
0.000896865
0.000896926
0.000896962
0.000896962
0.000896933
0.000896879
0.000896818
0.000896761
0.000896719
0.000896189
0.000896192
0.00089526
0.000895194
0.000895182
0.000895179
0.00089518
0.000895182
0.000895186
0.000895191
0.000895197
0.000895203
0.000895208
0.000895213
0.000895217
0.00089522
0.000895224
0.000895226
0.000895228
0.00089523
0.000895232
0.000895232
0.000895233
0.000895233
0.000895233
0.000893241
0.000893241
0.000893242
0.000893243
0.000893245
0.000893247
0.000893249
0.000893252
0.000893255
0.000893258
0.000893262
0.000893265
0.00089327
0.000893275
0.000893282
0.000893291
0.000893303
0.000893321
0.000893347
0.000893387
0.000893448
0.000893534
0.000893604
0.000894434
0.000894578
0.00089495
0.000895207
0.00089537
0.000895461
0.000895458
0.000895364
0.000895204
0.000895032
0.000894884
0.000894782
0.000894329
0.000894215
0.000893371
0.000893257
0.000893227
0.000893214
0.000893207
0.000893205
0.000893207
0.000893211
0.000893215
0.000893219
0.000893224
0.000893228
0.000893232
0.000893235
0.000893238
0.000893241
0.000893243
0.000893244
0.000893246
0.000893246
0.000893247
0.000893248
0.000893247
0.000891314
0.000891314
0.000891315
0.000891317
0.000891319
0.000891322
0.000891326
0.00089133
0.000891334
0.000891339
0.000891345
0.000891352
0.00089136
0.00089137
0.000891383
0.0008914
0.000891423
0.000891455
0.000891502
0.000891573
0.000891682
0.000891827
0.000891964
0.000892776
0.000893102
0.000893359
0.000894005
0.000894375
0.000894621
0.000894663
0.00089447
0.000894094
0.000893677
0.000893313
0.00089306
0.000892713
0.000892339
0.000891577
0.000891399
0.000891337
0.00089131
0.000891294
0.000891286
0.000891284
0.000891285
0.000891287
0.00089129
0.000891294
0.000891297
0.000891301
0.000891304
0.000891306
0.000891309
0.000891311
0.000891312
0.000891314
0.000891314
0.000891315
0.000891315
0.000891314
0.000889439
0.000889438
0.00088944
0.000889442
0.000889445
0.000889449
0.000889454
0.000889459
0.000889466
0.000889473
0.000889482
0.000889492
0.000889505
0.000889521
0.000889542
0.000889569
0.000889607
0.00088966
0.000889737
0.000889852
0.000890035
0.000890265
0.00089054
0.000891414
0.000891971
0.000892301
0.000893707
0.000894604
0.000895355
0.000895649
0.000895262
0.0008943
0.000893201
0.000892263
0.000891628
0.000891451
0.000890581
0.000889881
0.000889623
0.000889513
0.000889466
0.000889437
0.000889422
0.000889415
0.000889412
0.000889411
0.000889413
0.000889415
0.000889418
0.000889421
0.000889423
0.000889425
0.000889428
0.000889429
0.000889431
0.000889432
0.000889433
0.000889433
0.000889434
0.000889433
0.000887612
0.000887612
0.000887614
0.000887616
0.00088762
0.000887625
0.000887631
0.000887639
0.000887647
0.000887657
0.000887669
0.000887684
0.000887702
0.000887726
0.000887756
0.000887797
0.000887854
0.000887935
0.000888053
0.000888232
0.000888519
0.000888882
0.000889426
0.00089049
0.000891383
0.000892308
0.000895272
0.000897777
0.000900483
0.000902111
0.000901223
0.000898166
0.000894795
0.000892229
0.000890647
0.000890638
0.000888974
0.00088828
0.000887935
0.000887757
0.000887683
0.000887636
0.00088761
0.000887595
0.000887588
0.000887585
0.000887584
0.000887585
0.000887587
0.000887589
0.000887591
0.000887593
0.000887595
0.000887597
0.000887598
0.000887599
0.0008876
0.0008876
0.000887601
0.0008876
0.000885831
0.000885832
0.000885834
0.000885837
0.000885842
0.000885848
0.000885856
0.000885865
0.000885876
0.000885889
0.000885905
0.000885925
0.000885949
0.000885982
0.000886024
0.000886082
0.000886162
0.000886279
0.000886451
0.000886715
0.000887146
0.000887723
0.000888753
0.000890193
0.000891751
0.000894402
0.00090072
0.000908651
0.000920572
0.000930814
0.000928156
0.00091465
0.000901987
0.000894389
0.000890465
0.000890288
0.000887582
0.000886757
0.000886334
0.00088607
0.000885957
0.000885886
0.000885846
0.000885823
0.000885811
0.000885804
0.000885802
0.000885801
0.000885802
0.000885803
0.000885805
0.000885807
0.000885809
0.00088581
0.000885811
0.000885812
0.000885813
0.000885814
0.000885814
0.000885813
0.000884095
0.000884096
0.000884098
0.000884103
0.000884108
0.000884115
0.000884125
0.000884136
0.000884149
0.000884166
0.000884186
0.000884212
0.000884244
0.000884286
0.000884343
0.00088442
0.00088453
0.00088469
0.000884931
0.000885305
0.000885925
0.00088684
0.00088867
0.000890748
0.000893836
0.000900151
0.000913905
0.000902508
0.000417314
0.000272953
0.000288017
0.00046739
0.000926201
0.000901605
0.000891816
0.000890262
0.000886489
0.00088529
0.000884815
0.000884449
0.000884285
0.000884184
0.000884128
0.000884096
0.000884077
0.000884067
0.000884062
0.000884061
0.00088406
0.000884061
0.000884063
0.000884064
0.000884066
0.000884067
0.000884069
0.00088407
0.00088407
0.000884071
0.000884071
0.00088407
0.000882401
0.000882402
0.000882405
0.00088241
0.000882417
0.000882425
0.000882436
0.000882449
0.000882466
0.000882486
0.000882511
0.000882542
0.000882583
0.000882636
0.000882709
0.000882809
0.000882952
0.000883164
0.000883487
0.000883996
0.000884854
0.000886272
0.000889293
0.000892351
0.00089872
0.000911299
0.000939684
0.000524794
0.000203636
9.6961e-05
0.000115857
0.00021052
0.000499887
0.000919811
0.00089596
0.000890268
0.000885781
0.000883849
0.000883365
0.000882888
0.000882661
0.000882526
0.000882451
0.000882409
0.000882384
0.000882371
0.000882364
0.000882361
0.00088236
0.000882361
0.000882362
0.000882363
0.000882365
0.000882366
0.000882367
0.000882368
0.000882369
0.00088237
0.00088237
0.000882369
0.000880748
0.000880748
0.000880752
0.000880757
0.000880765
0.000880775
0.000880787
0.000880803
0.000880822
0.000880846
0.000880876
0.000880914
0.000880963
0.000881029
0.000881119
0.000881244
0.000881426
0.000881696
0.000882113
0.000882779
0.000883915
0.000886016
0.000890633
0.000895107
0.000907393
0.000928642
0.000971844
0.000658018
0.000238544
0.000226934
0.000382253
0.000951817
0.000904186
0.000890034
0.000885472
0.000882421
0.00088197
0.00088138
0.000881079
0.000880906
0.000880812
0.000880759
0.000880729
0.000880712
0.000880704
0.0008807
0.000880699
0.000880699
0.0008807
0.000880701
0.000880703
0.000880704
0.000880706
0.000880707
0.000880708
0.000880708
0.000880709
0.000880708
0.000879132
0.000879133
0.000879137
0.000879143
0.000879152
0.000879163
0.000879177
0.000879195
0.000879217
0.000879245
0.00087928
0.000879324
0.000879383
0.000879462
0.00087957
0.000879722
0.000879944
0.000880278
0.000880796
0.000881632
0.000883075
0.000885995
0.000892525
0.000898927
0.000919991
0.000952041
0.00100296
0.000767353
0.00116153
0.000202035
0.00105578
0.00042879
0.000959717
0.000916309
0.000889506
0.000885523
0.000881024
0.000880623
0.000879919
0.000879536
0.000879323
0.000879209
0.000879145
0.00087911
0.000879091
0.000879081
0.000879077
0.000879075
0.000879075
0.000879076
0.000879078
0.00087908
0.000879081
0.000879083
0.000879084
0.000879085
0.000879085
0.000879086
0.000879085
0.000877553
0.000877554
0.000877559
0.000877565
0.000877575
0.000877587
0.000877603
0.000877623
0.000877648
0.00087768
0.000877719
0.000877771
0.000877839
0.000877931
0.000878058
0.000878238
0.000878502
0.0008789
0.000879522
0.000880531
0.000882278
0.000886052
0.000894584
0.00090332
0.00093461
0.000980353
0.00105525
0.0022999
0.0113003
0.0225773
0.0165758
0.00235335
0.000698138
0.00103026
0.00093007
0.000889131
0.000885862
0.000879723
0.000879319
0.000878495
0.000878025
0.000877772
0.000877638
0.000877565
0.000877526
0.000877504
0.000877494
0.000877489
0.000877488
0.000877488
0.000877489
0.000877491
0.000877493
0.000877495
0.000877496
0.000877498
0.000877499
0.000877499
0.0008775
0.000877499
0.000876009
0.00087601
0.000876015
0.000876023
0.000876033
0.000876046
0.000876064
0.000876086
0.000876114
0.000876149
0.000876193
0.000876252
0.000876329
0.000876434
0.00087658
0.000876787
0.000877092
0.000877554
0.000878273
0.000879447
0.000881466
0.000886003
0.000896341
0.000907413
0.000947194
0.00100711
0.00112889
0.00276835
0.0136179
0.0257795
0.012686
0.00252843
0.000982013
0.00106428
0.000943075
0.000889996
0.00088637
0.000878625
0.00087806
0.000877104
0.000876543
0.000876252
0.000876099
0.000876017
0.000875974
0.000875951
0.00087594
0.000875936
0.000875935
0.000875935
0.000875937
0.000875939
0.000875941
0.000875943
0.000875945
0.000875947
0.000875948
0.000875948
0.000875949
0.000875948
0.000874499
0.0008745
0.000874505
0.000874513
0.000874524
0.000874539
0.000874558
0.000874582
0.000874612
0.00087465
0.0008747
0.000874764
0.00087485
0.000874968
0.000875131
0.000875365
0.000875708
0.000876229
0.000877038
0.000878358
0.000880596
0.000885719
0.000897525
0.000910404
0.000955059
0.00102566
0.00118164
0.0025919
0.0129594
0.0246403
0.0128349
0.00172705
0.00109854
0.00108616
0.000952443
0.000892655
0.000886904
0.000877821
0.000876855
0.000875744
0.000875091
0.000874761
0.000874589
0.0008745
0.000874453
0.00087443
0.000874419
0.000874415
0.000874415
0.000874416
0.000874418
0.000874421
0.000874423
0.000874425
0.000874427
0.000874429
0.00087443
0.000874431
0.000874432
0.00087443
0.00087302
0.000873021
0.000873027
0.000873035
0.000873047
0.000873063
0.000873083
0.000873109
0.000873141
0.000873183
0.000873236
0.000873307
0.000873401
0.00087353
0.00087371
0.000873967
0.000874346
0.000874923
0.000875813
0.000877258
0.000879678
0.000885231
0.000898049
0.000912069
0.000958439
0.00103409
0.00120613
0.00233766
0.0111055
0.024406
0.010253
0.00133539
0.00117697
0.00109392
0.000957623
0.000896831
0.00088737
0.000877362
0.000875721
0.000874412
0.00087367
0.000873301
0.00087311
0.000873012
0.000872963
0.000872939
0.000872929
0.000872926
0.000872926
0.000872929
0.000872931
0.000872934
0.000872937
0.00087294
0.000872942
0.000872944
0.000872945
0.000872946
0.000872947
0.000872945
0.000871573
0.000871574
0.00087158
0.000871589
0.000871601
0.000871617
0.000871639
0.000871666
0.0008717
0.000871744
0.000871801
0.000871877
0.000871978
0.000872117
0.000872311
0.000872593
0.000873007
0.000873634
0.000874596
0.000876144
0.000878715
0.000884542
0.000897975
0.000912521
0.000958719
0.00103564
0.00121149
0.00213285
0.0101102
0.0222098
0.00933105
0.00124056
0.00121619
0.00109316
0.000958744
0.000901525
0.000887828
0.000877257
0.000874676
0.000873108
0.000872283
0.000871871
0.000871661
0.000871556
0.000871504
0.00087148
0.00087147
0.000871468
0.000871469
0.000871472
0.000871476
0.000871479
0.000871483
0.000871485
0.000871488
0.00087149
0.000871491
0.000871492
0.000871493
0.000871491
0.000870154
0.000870156
0.000870162
0.000870171
0.000870184
0.000870201
0.000870223
0.000870251
0.000870287
0.000870334
0.000870394
0.000870473
0.000870581
0.000870729
0.000870939
0.000871242
0.000871688
0.000872361
0.000873387
0.000875017
0.000877721
0.000883701
0.00089745
0.000912145
0.000957267
0.00103504
0.00120699
0.0019862
0.00976482
0.0206243
0.00913499
0.00123576
0.00123479
0.00109168
0.000959048
0.000905725
0.000888294
0.000877492
0.000873732
0.000871844
0.00087094
0.000870478
0.000870246
0.000870131
0.000870076
0.000870051
0.000870042
0.00087004
0.000870042
0.000870046
0.00087005
0.000870054
0.000870058
0.000870061
0.000870063
0.000870065
0.000870067
0.000870068
0.000870069
0.000870067
0.000868765
0.000868766
0.000868773
0.000868782
0.000868795
0.000868812
0.000868835
0.000868864
0.000868901
0.000868949
0.000869011
0.000869094
0.000869208