/*--------------------------------*- C++ -*----------------------------------*\
  =========                 |
  \\      /  F ield         | OpenFOAM: The Open Source CFD Toolbox
   \\    /   O peration     | Website:  https://openfoam.org
    \\  /    A nd           | Version:  12
     \\/     M anipulation  |
\*---------------------------------------------------------------------------*/
FoamFile
{
    format      ascii;
    class       volScalarField;
    location    "420";
    object      omega;
}
// * * * * * * * * * * * * * * * * * * * * * * * * * * * * * * * * * * * * * //

dimensions      [0 0 -1 0 0 0 0];

internalField   nonuniform List<scalar> 
16227
(
9.34702
9.34704
9.34704
9.34707
9.34706
9.3471
9.34709
9.34708
9.34707
9.34709
9.34713
9.34715
9.3472
9.3472
9.3472
9.3472
9.3472
9.3472
9.3472
9.3472
9.3472
9.3472
9.3472
9.3472
9.3472
9.3472
9.3472
9.34722
9.34722
9.3472
9.34721
9.3472
9.3472
9.3472
9.34721
9.3472
9.3472
9.3472
9.3472
9.3472
9.3472
9.3472
9.3472
9.3472
9.3472
9.3472
9.3472
9.34719
9.34717
9.34717
9.34717
9.34716
9.3471
9.3471
9.34706
9.34705
9.34707
9.34705
9.34703
9.34702
8.71805
8.71807
8.71807
8.7181
8.71811
8.71814
8.71813
8.7181
8.71811
8.71812
8.71817
8.71819
8.71833
8.71839
8.7184
8.7184
8.7184
8.7184
8.7184
8.7184
8.71841
8.71843
8.71843
8.71843
8.71843
8.71843
8.71843
8.71842
8.71841
8.71836
8.71841
8.71843
8.71843
8.71843
8.71843
8.71842
8.7184
8.7184
8.7184
8.7184
8.71841
8.71841
8.71841
8.71839
8.71839
8.71838
8.71838
8.71838
8.71838
8.71837
8.71834
8.71829
8.71818
8.71816
8.71813
8.71811
8.71814
8.71807
8.71808
8.71806
8.16618
8.1662
8.16621
8.16623
8.16622
8.16631
8.16626
8.16625
8.16626
8.16627
8.16631
8.16633
8.16657
8.16663
8.16664
8.16665
8.16665
8.16664
8.16666
8.16661
8.16665
8.16666
8.16665
8.16665
8.16665
8.16665
8.16665
8.16666
8.16665
8.16658
8.16664
8.16665
8.16666
8.16666
8.16667
8.16667
8.16667
8.16666
8.16665
8.16666
8.16666
8.16666
8.16665
8.16665
8.16665
8.16665
8.16664
8.16664
8.16663
8.16661
8.16658
8.16639
8.16631
8.1663
8.16628
8.16627
8.16631
8.16621
8.16623
8.1662
7.67829
7.67831
7.67831
7.67832
7.67833
7.67839
7.6784
7.67836
7.67837
7.67836
7.67841
7.67846
7.67872
7.67879
7.6788
7.67882
7.67882
7.67884
7.67877
7.67865
7.67876
7.6788
7.67879
7.6788
7.6788
7.6788
7.6788
7.67879
7.67877
7.67869
7.67877
7.67879
7.67879
7.6788
7.67881
7.67882
7.67883
7.67883
7.67884
7.67884
7.67885
7.67885
7.67884
7.67885
7.67885
7.67884
7.67885
7.67885
7.67885
7.67882
7.67871
7.67852
7.67842
7.67844
7.67844
7.67846
7.67843
7.67836
7.67836
7.67834
7.24403
7.24404
7.24405
7.24407
7.24407
7.24413
7.24415
7.24409
7.2441
7.2441
7.24414
7.24419
7.24444
7.24456
7.24458
7.24457
7.24458
7.24455
7.24434
7.24427
7.24446
7.24452
7.24452
7.24451
7.2445
7.24449
7.24449
7.24449
7.24447
7.24438
7.24447
7.2445
7.24452
7.24453
7.24453
7.24455
7.24457
7.24459
7.2446
7.24461
7.24463
7.24465
7.24465
7.24466
7.24466
7.24468
7.24468
7.24468
7.24468
7.2446
7.24437
7.24426
7.24419
7.24422
7.24424
7.24428
7.24422
7.24415
7.24415
7.24414
6.85516
6.85518
6.85517
6.85519
6.85519
6.85523
6.85527
6.85522
6.8552
6.8552
6.8552
6.85524
6.85535
6.85562
6.85568
6.85569
6.85569
6.85558
6.85535
6.8553
6.85551
6.85557
6.85555
6.85553
6.85552
6.85552
6.85551
6.8555
6.85548
6.85539
6.85549
6.85552
6.85555
6.85558
6.8556
6.85563
6.85566
6.85569
6.85571
6.85574
6.85576
6.85579
6.85581
6.85584
6.85585
6.85586
6.85587
6.85588
6.85588
6.85575
6.85552
6.85541
6.85537
6.85542
6.85547
6.85546
6.85541
6.85535
6.85535
6.85533
6.50501
6.50503
6.50502
6.50504
6.50503
6.50507
6.50511
6.50509
6.50505
6.50504
6.50502
6.50501
6.50511
6.50536
6.50549
6.5055
6.50546
6.50517
6.50504
6.50504
6.50525
6.50529
6.50526
6.50524
6.50522
6.5052
6.50518
6.50518
6.50516
6.50506
6.50517
6.50522
6.50525
6.50529
6.50533
6.50537
6.50542
6.50547
6.50552
6.50557
6.50561
6.50565
6.50569
6.50571
6.50575
6.50577
6.50579
6.50581
6.50575
6.5055
6.50538
6.5053
6.50531
6.50538
6.50539
6.50539
6.50534
6.50529
6.5053
6.50528
6.18818
6.18818
6.18818
6.1882
6.18818
6.18821
6.18825
6.18824
6.18819
6.18815
6.18812
6.18808
6.18812
6.18824
6.18851
6.18858
6.18851
6.18816
6.18805
6.18803
6.18824
6.18827
6.18823
6.18819
6.18815
6.18813
6.18811
6.1881
6.18806
6.18797
6.18809
6.18816
6.18821
6.18826
6.18831
6.18838
6.18845
6.18852
6.18859
6.18866
6.18873
6.18878
6.18884
6.18889
6.18894
6.18897
6.18901
6.18903
6.18891
6.18867
6.18856
6.18853
6.18859
6.18863
6.18863
6.18863
6.18859
6.18854
6.18856
6.18854
5.90018
5.90018
5.90018
5.90018
5.90017
5.90019
5.90022
5.9002
5.90018
5.90011
5.90006
5.89999
5.9
5.90008
5.9004
5.90047
5.90031
5.89998
5.89986
5.89983
5.90002
5.90003
5.89997
5.89991
5.89986
5.89983
5.89979
5.89978
5.89975
5.89965
5.89978
5.89986
5.89993
5.9
5.90008
5.90017
5.90026
5.90037
5.90046
5.90055
5.90064
5.90074
5.90081
5.90088
5.90094
5.90101
5.90105
5.90101
5.90076
5.90065
5.90059
5.90064
5.90067
5.90071
5.90072
5.90072
5.9007
5.90065
5.90066
5.90065
5.6373
5.6373
5.63729
5.6373
5.63728
5.63729
5.63731
5.63728
5.63725
5.63722
5.63714
5.63704
5.63703
5.63711
5.63735
5.63742
5.63709
5.63687
5.63676
5.63672
5.63689
5.63688
5.63679
5.63671
5.63664
5.63659
5.63656
5.63653
5.6365
5.63641
5.63655
5.63663
5.63671
5.63681
5.63692
5.63703
5.63716
5.63729
5.63743
5.63754
5.63766
5.63778
5.63789
5.63799
5.63808
5.63816
5.63821
5.63814
5.63789
5.63781
5.63782
5.63785
5.63788
5.63793
5.63794
5.63796
5.63793
5.6379
5.6379
5.6379
5.39644
5.39644
5.39643
5.39643
5.39642
5.39642
5.39642
5.39638
5.39635
5.3963
5.39623
5.39611
5.39603
5.39605
5.39612
5.3963
5.39598
5.39579
5.39567
5.3956
5.39569
5.39569
5.39559
5.39548
5.39539
5.39532
5.39526
5.39523
5.3952
5.39511
5.39525
5.39536
5.39546
5.39558
5.39573
5.39588
5.39604
5.3962
5.39637
5.39654
5.39669
5.39683
5.39698
5.3971
5.39721
5.3973
5.39729
5.39719
5.39706
5.39701
5.39704
5.39708
5.39712
5.39718
5.3972
5.39721
5.3972
5.39716
5.39718
5.39717
5.17499
5.17499
5.17498
5.17497
5.17495
5.17495
5.17493
5.1749
5.17485
5.17478
5.1747
5.17459
5.17447
5.17442
5.17444
5.17456
5.1743
5.1741
5.17394
5.17382
5.17374
5.17382
5.17374
5.1736
5.17348
5.17339
5.17332
5.17328
5.17323
5.17315
5.17331
5.17343
5.17356
5.17371
5.17388
5.17407
5.17427
5.17448
5.17468
5.17488
5.17509
5.17527
5.17544
5.1756
5.17573
5.1758
5.17572
5.1757
5.17566
5.17563
5.17567
5.17573
5.17578
5.17584
5.17586
5.17589
5.17587
5.17584
5.17585
5.17585
4.97071
4.97071
4.9707
4.97069
4.97067
4.97066
4.97063
4.97059
4.97053
4.97045
4.97037
4.97023
4.9701
4.96996
4.96988
4.96983
4.96974
4.96957
4.96938
4.96921
4.96905
4.96914
4.96903
4.96886
4.96871
4.96859
4.96849
4.96844
4.96839
4.96831
4.96848
4.96862
4.96877
4.96896
4.96917
4.96941
4.96965
4.9699
4.97016
4.97041
4.97065
4.97088
4.97108
4.97127
4.97141
4.97148
4.97142
4.97147
4.97143
4.97143
4.97149
4.97155
4.97162
4.97167
4.97171
4.97173
4.97173
4.97171
4.97172
4.97171
4.78172
4.78173
4.78171
4.78169
4.78167
4.78165
4.78162
4.78157
4.78149
4.7814
4.7813
4.78115
4.78101
4.78085
4.78068
4.78058
4.7805
4.78032
4.78009
4.77988
4.77967
4.77971
4.77956
4.77935
4.77916
4.77901
4.77889
4.77881
4.77876
4.77868
4.77886
4.77903
4.77921
4.77944
4.7797
4.77998
4.78028
4.78058
4.78089
4.78119
4.78147
4.78174
4.78199
4.7822
4.78231
4.78235
4.78242
4.78249
4.78249
4.78252
4.78259
4.78266
4.78274
4.7828
4.78284
4.78287
4.78287
4.78286
4.78287
4.78286
4.60639
4.60639
4.60637
4.60635
4.60632
4.6063
4.60626
4.6062
4.60612
4.60601
4.60589
4.60573
4.60557
4.60538
4.6052
4.60506
4.60495
4.60472
4.60444
4.60418
4.60392
4.6039
4.6037
4.60345
4.60322
4.60302
4.60288
4.60278
4.60272
4.60263
4.60283
4.60302
4.60324
4.60351
4.60382
4.60416
4.60451
4.60488
4.60525
4.6056
4.60594
4.60626
4.60654
4.60674
4.60679
4.60693
4.60706
4.60716
4.6072
4.60725
4.60735
4.60743
4.60751
4.60758
4.60763
4.60766
4.60767
4.60767
4.60767
4.60767
4.44331
4.4433
4.44328
4.44326
4.44323
4.4432
4.44316
4.44308
4.44299
4.44288
4.44273
4.44256
4.44238
4.44216
4.44195
4.44178
4.44162
4.44135
4.44102
4.4407
4.4404
4.44026
4.44005
4.43974
4.43946
4.43922
4.43904
4.43892
4.43884
4.43876
4.43897
4.43919
4.43945
4.43977
4.44013
4.44054
4.44096
4.4414
4.44182
4.44224
4.44263
4.443
4.44332
4.44352
4.44362
4.44379
4.44395
4.44404
4.44412
4.44423
4.44435
4.44444
4.44453
4.44461
4.44467
4.4447
4.44471
4.44471
4.44473
4.44472
4.29125
4.29124
4.29123
4.2912
4.29116
4.29113
4.29108
4.29099
4.29089
4.29077
4.29062
4.29042
4.29022
4.28998
4.28973
4.28952
4.28933
4.289
4.28862
4.28822
4.28785
4.28752
4.28734
4.28702
4.28668
4.28639
4.28616
4.28601
4.28591
4.28583
4.28606
4.28631
4.28662
4.28699
4.28742
4.2879
4.2884
4.2889
4.2894
4.28988
4.29034
4.29075
4.29104
4.29125
4.29146
4.29169
4.29189
4.292
4.2921
4.29225
4.29237
4.29248
4.29257
4.29266
4.29272
4.29276
4.29277
4.29277
4.29279
4.29278
4.14915
4.14914
4.14912
4.14909
4.14905
4.14902
4.14896
4.14887
4.14876
4.14863
4.14846
4.14825
4.14802
4.14776
4.14748
4.14723
4.14699
4.14662
4.14618
4.14571
4.14525
4.14481
4.14459
4.14422
4.14381
4.14345
4.14317
4.14298
4.14286
4.14278
4.14302
4.1433
4.14366
4.1441
4.14462
4.14517
4.14576
4.14635
4.14693
4.14748
4.148
4.14842
4.14866
4.14898
4.14928
4.14956
4.14978
4.14992
4.15006
4.15021
4.15036
4.15047
4.15057
4.15066
4.15073
4.15077
4.15079
4.1508
4.15081
4.15081
4.01608
4.01607
4.01604
4.01602
4.01598
4.01593
4.01588
4.01578
4.01567
4.01552
4.01535
4.01512
4.01487
4.01458
4.01427
4.01398
4.01368
4.01326
4.01277
4.01223
4.01169
4.01117
4.01081
4.01038
4.0099
4.00947
4.00912
4.00888
4.00874
4.00865
4.00891
4.00924
4.00966
4.01018
4.01078
4.01144
4.01212
4.0128
4.01346
4.01408
4.01466
4.01511
4.01542
4.01579
4.01615
4.01645
4.01666
4.01684
4.01703
4.01721
4.01736
4.01749
4.0176
4.0177
4.01776
4.01781
4.01782
4.01784
4.01785
4.01785
3.89121
3.8912
3.89118
3.89115
3.89111
3.89107
3.89101
3.8909
3.89079
3.89063
3.89045
3.89021
3.88994
3.88963
3.88929
3.88894
3.88858
3.88812
3.88757
3.88696
3.88631
3.88568
3.8851
3.88468
3.88414
3.88363
3.88321
3.88291
3.88273
3.88264
3.88292
3.88329
3.88379
3.8844
3.8851
3.88587
3.88665
3.88744
3.88817
3.88883
3.88944
3.88993
3.89038
3.89083
3.89124
3.89155
3.89178
3.892
3.89222
3.89241
3.89257
3.89271
3.89282
3.89292
3.89299
3.89304
3.89306
3.89307
3.89309
3.89309
3.77383
3.77381
3.7738
3.77377
3.77372
3.77368
3.77362
3.77352
3.7734
3.77324
3.77304
3.7728
3.77251
3.77218
3.77179
3.77137
3.77094
3.77047
3.76986
3.76918
3.76844
3.76769
3.76696
3.76646
3.76582
3.7652
3.76469
3.76432
3.7641
3.76399
3.76429
3.76472
3.76531
3.76603
3.76686
3.76775
3.76866
3.76953
3.77034
3.77109
3.7717
3.77229
3.77286
3.77337
3.7738
3.77411
3.77438
3.77465
3.77489
3.77509
3.77527
3.7754
3.77552
3.77562
3.77569
3.77575
3.77577
3.77578
3.7758
3.7758
3.66328
3.66326
3.66325
3.66322
3.66318
3.66314
3.66307
3.66298
3.66285
3.66269
3.66249
3.66224
3.66195
3.66159
3.66118
3.66071
3.66023
3.65971
3.65904
3.65826
3.65743
3.65657
3.6557
3.65503
3.65429
3.65355
3.65293
3.65248
3.6522
3.65208
3.6524
3.6529
3.65359
3.65444
3.65541
3.65646
3.65748
3.65845
3.65937
3.66022
3.66091
3.66159
3.66222
3.66277
3.66321
3.66355
3.66385
3.66414
3.6644
3.66461
3.66479
3.66493
3.66505
3.66515
3.66522
3.66528
3.66531
3.66532
3.66534
3.66533
3.559
3.55898
3.55897
3.55894
3.5589
3.55886
3.55881
3.55871
3.55859
3.55843
3.55823
3.55798
3.55768
3.55731
3.55687
3.55637
3.55584
3.55524
3.55452
3.55366
3.55272
3.55172
3.55073
3.54981
3.54906
3.54818
3.54743
3.54687
3.54653
3.54637
3.54671
3.5473
3.5481
3.54911
3.55026
3.55148
3.55256
3.55365
3.55463
3.55557
3.55642
3.55719
3.55787
3.55842
3.55887
3.55925
3.5596
3.55991
3.56018
3.56039
3.56058
3.56072
3.56084
3.56094
3.56102
3.56107
3.5611
3.56112
3.56113
3.56112
3.46047
3.46046
3.46044
3.46042
3.46039
3.46035
3.4603
3.46021
3.4601
3.45995
3.45975
3.4595
3.45919
3.45882
3.45837
3.45783
3.45722
3.45655
3.45579
3.45488
3.45383
3.4527
3.45156
3.45088
3.49778
3.49688
3.49605
3.49541
3.49501
3.49482
3.49516
3.49578
3.49666
3.49776
3.49902
3.50034
3.45399
3.45465
3.45575
3.45681
3.45776
3.45859
3.4593
3.45985
3.46031
3.46074
3.46112
3.46145
3.46171
3.46194
3.46212
3.46226
3.46238
3.46248
3.46255
3.46261
3.46264
3.46265
3.46267
3.46266
3.36724
3.36723
3.36722
3.3672
3.36717
3.36714
3.3671
3.36702
3.36692
3.36678
3.36659
3.36634
3.36604
3.36567
3.36522
3.36466
3.364
3.36326
3.36243
3.36148
3.36035
3.3591
3.35826
3.40248
3.39959
3.39867
3.39766
3.39685
3.39631
3.39603
3.39636
3.39705
3.39807
3.39937
3.40087
3.40234
3.40572
3.36159
3.36234
3.36346
3.36448
3.36535
3.36606
3.36663
3.36712
3.36758
3.36796
3.36829
3.36856
3.36878
3.36895
3.3691
3.36921
3.36931
3.36938
3.36943
3.36946
3.36948
3.36949
3.36948
3.2789
3.27888
3.27888
3.27887
3.27885
3.27883
3.2788
3.27873
3.27864
3.27852
3.27835
3.27811
3.27783
3.27746
3.27701
3.27645
3.27578
3.27499
3.2741
3.27309
3.27189
3.27056
3.26993
3.30982
3.30707
3.32837
3.32731
3.32638
3.3257
3.32531
3.32559
3.32628
3.32738
3.32883
3.33053
3.31005
3.31316
3.27351
3.27393
3.27511
3.27615
3.27702
3.27773
3.27833
3.27886
3.27932
3.27971
3.28003
3.28029
3.2805
3.28068
3.28081
3.28093
3.28102
3.28109
3.28114
3.28116
3.28118
3.28119
3.28118
3.19508
3.19506
3.19506
3.19506
3.19505
3.19504
3.19502
3.19497
3.1949
3.19479
3.19464
3.19443
3.19417
3.19383
3.19339
3.19285
3.19217
3.19137
3.19042
3.18935
3.18813
3.18678
3.18641
3.2223
3.21986
3.2387
3.23794
3.23684
3.23593
3.23531
3.23534
3.23588
3.23699
3.2386
3.2405
3.22316
3.22547
3.19014
3.19021
3.19138
3.19241
3.19326
3.19398
3.1946
3.19515
3.1956
3.19598
3.19629
3.19654
3.19675
3.19691
3.19705
3.19715
3.19724
3.1973
3.19735
3.19737
3.19739
3.1974
3.19739
3.11543
3.11542
3.11543
3.11543
3.11543
3.11544
3.11543
3.11541
3.11536
3.11527
3.11515
3.11497
3.11474
3.11443
3.11403
3.11352
3.11288
3.11208
3.11113
3.11003
3.1088
3.1075
3.10749
3.13988
3.13766
3.15421
3.15412
3.15293
3.15184
3.15095
3.15065
3.15087
3.1518
3.15337
3.1555
3.14107
3.1425
3.11116
3.11084
3.11193
3.11292
3.11376
3.11449
3.11512
3.11565
3.11609
3.11645
3.11674
3.11698
3.11718
3.11733
3.11746
3.11755
3.11764
3.1177
3.11774
3.11776
3.11777
3.11778
3.11777
3.03967
3.03966
3.03967
3.03969
3.0397
3.03972
3.03974
3.03973
3.03971
3.03966
3.03957
3.03943
3.03924
3.03898
3.03863
3.03816
3.03758
3.03685
3.03595
3.03488
3.03371
3.03253
3.03305
3.06249
3.0606
3.07561
3.07652
3.07589
3.07518
3.07433
3.07342
3.07256
3.07247
3.07334
3.07526
3.06399
3.06405
3.03627
3.03554
3.03646
3.03744
3.03827
3.03898
3.03957
3.04007
3.04047
3.04081
3.04108
3.0413
3.04148
3.04163
3.04174
3.04183
3.04191
3.04196
3.042
3.04202
3.04203
3.04204
3.04202
2.96752
2.96751
2.96752
2.96755
2.96758
2.96762
2.96765
2.96767
2.96768
2.96766
2.96762
2.96753
2.96739
2.96719
2.96691
2.96652
2.96602
2.96539
2.96461
2.96368
2.9627
2.96177
2.96313
2.99024
2.98899
3.0037
3.00753
3.00945
3.01226
3.01371
3.01139
3.00609
3.00145
2.99951
2.99989
2.99179
2.98991
2.96521
2.96412
2.96484
2.96572
2.96648
2.96713
2.96766
2.96811
2.96848
2.96879
2.96903
2.96923
2.9694
2.96953
2.96963
2.96971
2.96978
2.96982
2.96986
2.96987
2.96988
2.96989
2.96987
2.89871
2.89871
2.89873
2.89877
2.89881
2.89887
2.89893
2.89898
2.89902
2.89904
2.89904
2.89901
2.89894
2.89881
2.89861
2.89833
2.89795
2.89747
2.89687
2.89619
2.89555
2.89516
2.89785
2.92332
2.92371
2.94109
2.95154
2.96473
2.98778
3.00878
3.00175
2.97235
2.94712
2.93448
2.93019
2.92437
2.92
2.89773
2.89638
2.89679
2.8975
2.89813
2.89868
2.89914
2.89953
2.89985
2.90012
2.90034
2.90052
2.90066
2.90078
2.90087
2.90094
2.901
2.90104
2.90107
2.90108
2.90108
2.90109
2.90107
2.83304
2.83303
2.83306
2.83311
2.83317
2.83325
2.83333
2.83341
2.83349
2.83356
2.83361
2.83364
2.83364
2.8336
2.83351
2.83336
2.83313
2.83284
2.8325
2.83217
2.83206
2.83262
2.83749
2.86218
2.86632
2.89115
2.91748
2.97379
3.12831
3.35927
3.31731
3.07945
2.93735
2.88522
2.86816
2.86103
2.85431
2.83366
2.83205
2.83205
2.83251
2.83297
2.83339
2.83377
2.83409
2.83436
2.83459
2.83477
2.83493
2.83505
2.83515
2.83523
2.83529
2.83534
2.83537
2.8354
2.83541
2.83541
2.83541
2.83539
2.77028
2.77028
2.77032
2.77038
2.77045
2.77055
2.77066
2.77077
2.77089
2.77101
2.77112
2.77121
2.77129
2.77135
2.77138
2.77138
2.77134
2.77129
2.77128
2.7714
2.772
2.77397
2.78198
2.80716
2.81938
2.85731
2.91731
3.12635
4.09674
8.60259
7.57006
4.11139
3.07017
2.8662
2.81654
2.80124
2.79308
2.77261
2.77081
2.77033
2.77048
2.77074
2.77102
2.7713
2.77155
2.77177
2.77195
2.77211
2.77224
2.77234
2.77243
2.77249
2.77255
2.77259
2.77262
2.77264
2.77265
2.77265
2.77265
2.77262
2.71025
2.71025
2.7103
2.71037
2.71046
2.71058
2.71071
2.71086
2.71102
2.71118
2.71135
2.71152
2.71169
2.71185
2.71201
2.71217
2.71235
2.71259
2.71296
2.71363
2.71508
2.71893
2.73102
2.75809
2.78442
2.84082
2.9573
3.57892
13.5787
11.4703
3.53825
2.89246
2.77843
2.74409
2.73587
2.71428
2.71235
2.71136
2.71116
2.71119
2.71134
2.71151
2.71169
2.71186
2.71201
2.71214
2.71225
2.71234
2.71241
2.71247
2.71251
2.71255
2.71258
2.7126
2.7126
2.71261
2.71261
2.71259
2.65278
2.65278
2.65283
2.65291
2.65302
2.65316
2.65332
2.6535
2.65369
2.65391
2.65414
2.65438
2.65464
2.65492
2.65521
2.65555
2.65596
2.6565
2.65729
2.65857
2.66096
2.66699
2.68378
2.7142
2.76074
2.84052
3.05773
5.08336
36.2102
456.563
59.1074
4.16126
2.95002
2.75216
2.68925
2.68224
2.65849
2.65646
2.65496
2.6544
2.65421
2.65421
2.65429
2.6544
2.65452
2.65463
2.65474
2.65482
2.6549
2.65496
2.65501
2.65505
2.65508
2.65511
2.65512
2.65513
2.65513
2.65513
2.6551
2.59769
2.59769
2.59775
2.59785
2.59797
2.59813
2.59831
2.59852
2.59876
2.59902
2.59931
2.59962
2.59997
2.60036
2.6008
2.60132
2.60196
2.60281
2.60403
2.60592
2.60924
2.61745
2.63904
2.67393
2.74309
2.85292
3.27599
10.9865
50.9298
40.1654
29.254
33.5988
4.40101
2.99378
2.73105
2.63705
2.63143
2.60502
2.60283
2.60086
2.59995
2.59956
2.59943
2.59942
2.59948
2.59955
2.59964
2.59972
2.59979
2.59986
2.59991
2.59995
2.59998
2.60001
2.60003
2.60004
2.60004
2.60004
2.60004
2.60001
2.54485
2.54485
2.54492
2.54503
2.54516
2.54534
2.54555
2.54578
2.54605
2.54636
2.54671
2.54709
2.54752
2.54802
2.5486
2.54929
2.55015
2.55129
2.55291
2.55535
2.55949
2.5696
2.59531
2.63471
2.72167
2.86166
3.44688
12.7226
42.2161
50.2403
28.0585
18.5355
4.3521
3.00603
2.70799
2.58919
2.58257
2.5538
2.55118
2.54881
2.54759
2.54704
2.54681
2.54674
2.54675
2.5468
2.54687
2.54694
2.547
2.54705
2.5471
2.54713
2.54716
2.54718
2.5472
2.54721
2.54721
2.54721
2.54721
2.54717
2.49412
2.49412
2.4942
2.49431
2.49446
2.49465
2.49488
2.49514
2.49545
2.4958
2.49619
2.49664
2.49715
2.49774
2.49844
2.49928
2.50033
2.50171
2.50368
2.50664
2.51147
2.52296
2.55177
2.59439
2.69034
2.8505
3.47842
10.9124
31.3784
46.0714
23.7142
11.5051
4.16019
2.98314
2.67594
2.5463
2.53496
2.50475
2.50133
2.49861
2.49718
2.49651
2.49621
2.49611
2.4961
2.49613
2.49619
2.49625
2.4963
2.49635
2.49639
2.49642
2.49644
2.49646
2.49648
2.49648
2.49649
2.49648
2.49648
2.49645
2.44537
2.44538
2.44546
2.44558
2.44574
2.44594
2.44619
2.44648
2.44681
2.44719
2.44763
2.44813
2.44871
2.44938
2.45017
2.45111
2.45232
2.45396
2.45626
2.45965
2.46505
2.47742
2.50805
2.55211
2.64961
2.81607
3.41409
8.79704
23.992
34.9607
17.2494
8.24041
3.90813
2.92778
2.63359
2.5069
2.48822
2.45787
2.4532
2.45012
2.44855
2.44782
2.4475
2.44739
2.44738
2.44742
2.44747
2.44753
2.44758
2.44763
2.44767
2.4477
2.44772
2.44774
2.44775
2.44775
2.44775
2.44775
2.44775
2.44771
2.39849
2.3985
2.39858
2.39871
2.39888
2.3991
2.39936
2.39967
2.40002
2.40044
2.40091
2.40146
2.40208
2.40277
2.40363
2.40472
2.40612
2.40798
2.41054
2.41425
2.42004
2.43284
2.46422
2.50815
2.60287
2.76672
3.30928
7.28981
19.1456
27.1796
12.5151
6.5868
3.68422
2.85635
2.58267
2.46913
2.44233
2.41291
2.40668
2.40321
2.40158
2.40083
2.40054
2.40048
2.40049
2.40054
2.40061
2.40067
2.40073
2.40078
2.40081
2.40084
2.40087
2.40088
2.40089
2.4009
2.40089
2.40089
2.40089
2.40085
2.35338
2.35339
2.35347
2.3536
2.35378
2.354
2.35428
2.3546
2.35498
2.35541
2.3559
2.35647
2.35711
2.35787
2.35883
2.36003
2.36157
2.36359
2.36634
2.37027
2.37635
2.38922
2.42056
2.46346
2.55352
2.71363
3.19436
6.27163
15.8901
21.6457
9.58951
5.72401
3.5092
2.78649
2.53067
2.43063
2.3976
2.37002
2.36181
2.35789
2.3563
2.35559
2.35531
2.35526
2.35532
2.35541
2.35549
2.35557
2.35563
2.35569
2.35573
2.35576
2.35578
2.3558
2.35581
2.35581
2.3558
2.3558
2.3558
2.35576
2.30992
2.30993
2.31002
2.31016
2.31034
2.31057
2.31085
2.31118
2.31157
2.31201
2.31249
2.31306
2.31376
2.3146
2.31563
2.31691
2.31853
2.32067
2.32358
2.32764
2.33389
2.34662
2.37754
2.4187
2.5035
2.66095
3.08416
5.5404
13.4141
17.6147
7.82548
5.19644
3.37679
2.73005
2.48408
2.38971
2.35431
2.32894
2.31866
2.31426
2.31263
2.31196
2.31174
2.31171
2.31178
2.31189
2.31203
2.31213
2.31221
2.31227
2.31231
2.31234
2.31236
2.31238
2.31239
2.31239
2.31239
2.31238
2.31238
2.31234
2.26805
2.26806
2.26815
2.26828
2.26847
2.2687
2.26899
2.26932
2.26971
2.27013
2.27063
2.27124
2.27197
2.27284
2.27391
2.27523
2.27693
2.27914
2.28216
2.28626
2.29264
2.30518
2.33534
2.37454
2.45428
2.60867
2.98212
4.94907
11.3669
14.674
7.58323
4.87533
3.27965
2.70337
2.45556
2.34455
2.31361
2.28948
2.27716
2.27227
2.27061
2.26989
2.26974
2.26976
2.26985
2.26998
2.27013
2.27026
2.27036
2.27043
2.27048
2.27051
2.27053
2.27055
2.27055
2.27056
2.27055
2.27054
2.27054
2.2705
2.22766
2.22767
2.22776
2.2279
2.22808
2.22832
2.2286
2.22892
2.22929
2.22973
2.23025
2.23087
2.23161
2.2325
2.23359
2.23494
2.23667
2.23892
2.24201
2.24611
2.25265
2.26491
2.29417
2.33144
2.40669
2.55632
2.89024
4.45722
9.63942
12.4162
8.00665
5.28478
3.48803
2.81436
2.49673
2.30586
2.27763
2.25142
2.23728
2.2319
2.23016
2.22941
2.22923
2.2293
2.22943
2.22958
2.22973
2.22988
2.23
2.23009
2.23014
2.23017
2.23019
2.23021
2.23022
2.23022
2.23021
2.2302
2.2302
2.23016
2.18868
2.18869
2.18878
2.18892
2.1891
2.18933
2.18959
2.1899
2.19028
2.19073
2.19126
2.19188
2.19262
2.19351
2.19459
2.19595
2.1977
2.19996
2.20309
2.2072
2.21386
2.22582
2.25427
2.28977
2.36129
2.50579
2.81192
4.04408
8.17549
10.4248
8.61529
5.67419
4.07238
3.20901
2.72925
2.33298
2.2455
2.21457
2.19898
2.19313
2.19121
2.19045
2.19025
2.19029
2.19042
2.19057
2.19077
2.19093
2.19106
2.19116
2.19122
2.19126
2.19128
2.19129
2.1913
2.19129
2.19129
2.19128
2.19128
2.19123
2.15105
2.15106
2.15114
2.15128
2.15145
2.15166
2.15192
2.15224
2.15262
2.15306
2.15358
2.15419
2.15492
2.15579
2.15686
2.1582
2.15995
2.16218
2.16532
2.16946
2.17624
2.18792
2.21594
2.25
2.31853
2.46039
2.74705
3.68616
6.90615
8.95382
8.8545
6.27783
4.62424
3.62496
3.06244
2.47658
2.21865
2.17895
2.16219
2.1559
2.15371
2.15292
2.15269
2.15272
2.15285
2.153
2.15316
2.15334
2.15347
2.15357
2.15365
2.15369
2.15371
2.15372
2.15372
2.15372
2.15371
2.1537
2.1537
2.15365
2.11469
2.11469
2.11478
2.11491
2.11507
2.11527
2.11554
2.11585
2.11622
2.11665
2.11716
2.11775
2.11845
2.1193
2.12035
2.12165
2.12335
2.12554
2.12872
2.13288
2.13976
2.15129
2.17956
2.21287
2.27917
2.42534
2.70378
3.37764
5.75911
7.86408
8.27329
6.73903
5.06432
3.9369
3.26853
2.66764
2.21019
2.14471
2.12683
2.12011
2.11762
2.11675
2.11648
2.11649
2.11661
2.11676
2.1169
2.11703
2.11717
2.11727
2.11734
2.11739
2.11742
2.11743
2.11742
2.11742
2.11741
2.11739
2.11739
2.11734
2.07954
2.07954
2.07962
2.07974
2.07989
2.0801
2.08036
2.08066
2.08102
2.08144
2.08192
2.08249
2.08316
2.08398
2.08499
2.08624
2.08788
2.09005
2.09325
2.09743
2.1044
2.11602
2.14569
2.1797
2.24478
2.4135
2.70106
3.1329
4.73861
6.82928
7.30868
6.69323
5.25926
4.11332
3.34005
2.81099
2.22896
2.11224
2.0928
2.08565
2.08286
2.08189
2.08155
2.08153
2.08162
2.08176
2.08188
2.08199
2.08209
2.08219
2.08226
2.08231
2.08233
2.08234
2.08234
2.08233
2.08231
2.0823
2.08229
2.08225
2.04554
2.04554
2.04561
2.04572
2.04588
2.04608
2.04633
2.04663
2.04697
2.04737
2.04783
2.04837
2.04901
2.04979
2.05075
2.05194
2.05354
2.05567
2.05886
2.0631
2.07016
2.08225
2.11496
2.15302
2.2174
2.45334
2.74266
2.94891
3.9347
5.82698
6.50995
6.27534
5.14589
4.14359
3.34543
2.87635
2.26705
2.08189
2.06003
2.0524
2.04935
2.04826
2.04785
2.04777
2.04783
2.04793
2.04804
2.04813
2.0482
2.04827
2.04833
2.04838
2.0484
2.04841
2.0484
2.04839
2.04837
2.04836
2.04835
2.0483
2.01264
2.01263
2.0127
2.01282
2.01297
2.01317
2.01341
2.01369
2.01401
2.01439
2.01483
2.01534
2.01595
2.01668
2.01759
2.01871
2.02028
2.02238
2.02554
2.0299
2.03705
2.05006
2.08804
2.13608
2.20628
2.57713
2.79192
2.8174
3.43362
5.13366
5.97934
5.69457
4.84567
4.08229
3.32525
2.87786
2.31026
2.05383
2.02846
2.02028
2.01701
2.0158
2.01529
2.01515
2.01516
2.01523
2.01531
2.01539
2.01544
2.01548
2.01551
2.01555
2.01556
2.01557
2.01557
2.01555
2.01553
2.01551
2.0155
2.01545
1.98079
1.98078
1.98085
1.98096
1.98111
1.9813
1.98153
1.98179
1.98211
1.98247
1.98288
1.98336
1.98394
1.98463
1.98548
1.98656
1.98808
1.99015
1.9933
1.99783
2.00517
2.01935
2.06554
2.12976
2.23514
2.77291
2.84918
2.79984
3.30123
4.98644
5.39057
5.07859
4.51744
3.99899
3.29487
2.84249
2.34863
2.02804
1.99804
1.98922
1.98577
1.98443
1.98382
1.98361
1.98357
1.9836
1.98365
1.98369
1.98373
1.98375
1.98375
1.98376
1.98377
1.98377
1.98376
1.98375
1.98373
1.98371
1.9837
1.98364
1.94994
1.94993
1.94999
1.9501
1.95024
1.95043
1.95065
1.9509
1.9512
1.95155
1.95194
1.95239
1.95293
1.95358
1.95438
1.95543
1.95692
1.95898
1.96214
1.96689
1.97466
1.99083
2.04734
2.1316
2.28677
3.15352
3.02015
2.90576
3.4827
4.91262
4.78874
4.55624
4.25674
3.92227
3.25977
2.79521
2.378
2.00442
1.96872
1.95915
1.95554
1.95408
1.95337
1.9531
1.95299
1.95298
1.95299
1.953
1.95301
1.95301
1.953
1.95298
1.95297
1.95297
1.95296
1.95294
1.95292
1.9529
1.95288
1.95282
1.92004
1.92003
1.9201
1.9202
1.92034
1.92052
1.92073
1.92098
1.92126
1.92159
1.92196
1.92239
1.9229
1.9235
1.92428
1.92532
1.92678
1.92884
1.93206
1.93704
1.94555
1.9646
2.03133
2.13814
2.44164
3.6048
3.03142
2.95506
3.7629
4.59519
4.32927
4.17958
4.07962
3.85631
3.22293
2.75289
2.3976
1.98275
1.94042
1.93
1.92628
1.92469
1.92389
1.92354
1.92338
1.92331
1.92328
1.92326
1.92325
1.92323
1.9232
1.92317
1.92313
1.92311
1.92309
1.92308
1.92305
1.92303
1.92301
1.92295
1.89107
1.89105
1.89112
1.89122
1.89135
1.89153
1.89173
1.89197
1.89224
1.89256
1.89292
1.89333
1.89381
1.89439
1.89515
1.89617
1.89762
1.89972
1.90303
1.90828
1.91779
1.94026
2.01643
2.15412
2.71034
3.7739
2.93296
3.08799
3.92389
4.17425
3.99427
3.92401
3.96073
3.79777
3.18533
2.72266
2.40776
1.96254
1.91305
1.90172
1.8979
1.89621
1.89532
1.89489
1.89467
1.89455
1.89448
1.89443
1.89439
1.89434
1.8943
1.89425
1.89421
1.89416
1.89413
1.89411
1.89408
1.89406
1.89404
1.89399
1.86296
1.86295
1.86301
1.86311
1.86324
1.86341
1.86361
1.86384
1.86411
1.86442
1.86476
1.86516
1.86561
1.86619
1.86695
1.86797
1.86943
1.87157
1.875
1.88056
1.89122
1.91746
2.00527
2.19383
2.92953
3.75153
2.88013
3.23297
3.80869
3.76764
3.71509
3.74632
3.87364
3.7369
3.14666
2.70339
2.40892
1.94307
1.88646
1.87426
1.87037
1.86857
1.8676
1.8671
1.86681
1.86665
1.86654
1.86646
1.86639
1.86632
1.86626
1.8662
1.86614
1.86608
1.86603
1.866
1.86597
1.86595
1.86594
1.86588
1.83569
1.83568
1.83574
1.83584
1.83597
1.83613
1.83633
1.83656
1.83682
1.83712
1.83746
1.83785
1.8383
1.83888
1.83964
1.84066
1.84215
1.84436
1.84794
1.85385
1.86569
1.89617
2.00049
2.25391
3.05006
3.56991
2.91028
3.30487
3.50801
3.42918
3.49101
3.61747
3.77958
3.58279
3.04405
2.6844
2.40038
1.92355
1.86041
1.84754
1.84361
1.84173
1.84069
1.84011
1.83978
1.83957
1.83942
1.83931
1.83921
1.83912
1.83904
1.83896
1.83889
1.83883
1.83877
1.83872
1.83868
1.83866
1.83865
1.83859
1.80922
1.80921
1.80927
1.80937
1.8095
1.80966
1.80986
1.81009
1.81035
1.81065
1.81098
1.81135
1.81182
1.81241
1.81318
1.81423
1.81575
1.81804
1.82178
1.82808
1.84122
1.87759
2.01823
2.51725
3.09969
3.50869
2.9351
3.19575
3.28721
3.26084
3.37313
3.53576
3.6888
3.4945
3.02345
2.66825
2.23768
1.90408
1.83483
1.82152
1.81758
1.81564
1.81453
1.8139
1.81351
1.81326
1.81307
1.81293
1.81281
1.8127
1.8126
1.81251
1.81243
1.81235
1.81229
1.81223
1.81218
1.81216
1.81215
1.81209
1.78352
1.78351
1.78357
1.78367
1.7838
1.78396
1.78416
1.78439
1.78465
1.78495
1.78528
1.78566
1.78614
1.78675
1.78753
1.78861
1.79019
1.79257
1.79648
1.80319
1.81777
1.86132
2.03691
2.55557
3.20834
3.33486
2.9579
3.01551
3.03002
3.0995
3.26859
3.44811
3.52338
3.26201
2.97954
2.56611
2.21421
1.88386
1.80981
1.79618
1.79224
1.79026
1.78909
1.78841
1.78797
1.78768
1.78747
1.7873
1.78715
1.78702
1.78691
1.7868
1.78671
1.78663
1.78655
1.78649
1.78644
1.78641
1.78639
1.78634
1.75855
1.75854
1.7586
1.7587
1.75883
1.759
1.7592
1.75943
1.7597
1.76
1.76033
1.76073
1.76123
1.76185
1.76266
1.76378
1.76542
1.76789
1.77197
1.77909
1.7952
1.84664
2.05319
2.57663
3.16246
3.33343
2.94899
2.91021
2.92204
3.00956
3.18194
3.35128
3.41918
3.20183
2.96111
2.52493
2.18779
1.86269
1.7853
1.77149
1.76755
1.76554
1.76434
1.7636
1.76313
1.76281
1.76257
1.76237
1.7622
1.76206
1.76193
1.76181
1.76171
1.76162
1.76154
1.76147
1.76142
1.76137
1.76135
1.7613
1.73428
1.73427
1.73434
1.73444
1.73457
1.73474
1.73495
1.73519
1.73546
1.73576
1.73611
1.73653
1.73704
1.73769
1.73853
1.7397
1.74139
1.74396
1.7482
1.75571
1.77339
1.8329
2.06627
2.58509
3.12189
3.34179
2.94519
2.82015
2.82392
2.92037
3.09318
3.25759
3.32456
3.15056
2.94459
2.48493
2.15882
1.84071
1.76128
1.74739
1.74347
1.74146
1.74022
1.73946
1.73896
1.7386
1.73833
1.73812
1.73794
1.73778
1.73763
1.7375
1.73739
1.73729
1.73721
1.73713
1.73708
1.73703
1.73701
1.73695
1.71069
1.71068
1.71075
1.71085
1.71099
1.71116
1.71137
1.71162
1.7119
1.71221
1.71257
1.71301
1.71355
1.71423
1.71511
1.71632
1.71807
1.72073
1.72512
1.73298
1.75219
1.81948
2.07572
2.58451
3.08538
3.35762
2.9493
2.74539
2.73575
2.83466
3.0057
3.16816
3.23964
3.10868
2.92946
2.44613
2.12825
1.81823
1.73774
1.72385
1.71997
1.71799
1.71672
1.71594
1.71541
1.71503
1.71475
1.71451
1.71431
1.71414
1.71399
1.71385
1.71373
1.71362
1.71353
1.71345
1.71339
1.71335
1.71332
1.71326
1.68774
1.68774
1.6878
1.68791
1.68805
1.68823
1.68845
1.6887
1.68899
1.68931
1.68969
1.69016
1.69072
1.69142
1.69234
1.6936
1.69542
1.69815
1.70267
1.71084
1.73147
1.80593
2.0814
2.57731
3.05175
3.37833
2.96043
2.68447
2.65692
2.75341
2.92121
3.08404
3.16467
3.07537
2.91463
2.40837
2.09682
1.79554
1.71466
1.70086
1.69705
1.69509
1.6938
1.69301
1.69246
1.69208
1.69177
1.69152
1.69131
1.69113
1.69097
1.69082
1.69069
1.69058
1.69049
1.6904
1.69034
1.69029
1.69026
1.6902
1.66541
1.66541