/*--------------------------------*- C++ -*----------------------------------*\
  =========                 |
  \\      /  F ield         | OpenFOAM: The Open Source CFD Toolbox
   \\    /   O peration     | Website:  https://openfoam.org
    \\  /    A nd           | Version:  12
     \\/     M anipulation  |
\*---------------------------------------------------------------------------*/
FoamFile
{
    format      ascii;
    class       volScalarField;
    location    "420";
    object      p;
}
// * * * * * * * * * * * * * * * * * * * * * * * * * * * * * * * * * * * * * //

dimensions      [0 2 -2 0 0 0 0];

internalField   nonuniform List<scalar> 
16227
(
0.115001
0.11505
0.115149
0.115295
0.115487
0.115722
0.115998
0.116311
0.116656
0.117028
0.11742
0.117826
0.118238
0.118647
0.119044
0.119419
0.11976
0.120057
0.120297
0.120468
0.120559
0.120557
0.120451
0.120231
0.119888
0.119415
0.118805
0.118056
0.117164
0.116132
0.114962
0.113661
0.112236
0.110697
0.109056
0.107328
0.105526
0.103667
0.101766
0.0998414
0.0979079
0.0959819
0.0940787
0.0922128
0.0903975
0.0886453
0.0869675
0.0853741
0.0838743
0.0824759
0.081186
0.0800103
0.0789541
0.0780214
0.0772159
0.0765407
0.075998
0.0755896
0.0753167
0.0751799
0.114964
0.115014
0.115113
0.11526
0.115454
0.115692
0.115971
0.116287
0.116635
0.117012
0.117409
0.117821
0.118239
0.118655
0.11906
0.119443
0.119792
0.120098
0.120347
0.120527
0.120626
0.120632
0.120534
0.120321
0.119984
0.119515
0.118908
0.11816
0.117268
0.116233
0.115059
0.113752
0.112319
0.110772
0.109121
0.107382
0.105569
0.103697
0.101785
0.0998479
0.0979028
0.0959656
0.0940518
0.092176
0.0903516
0.0885912
0.0869059
0.0853059
0.0838002
0.0823968
0.0811024
0.079923
0.0788635
0.0779282
0.0771207
0.0764438
0.0758998
0.0754905
0.0752171
0.07508
0.114882
0.114933
0.115034
0.115184
0.115382
0.115625
0.11591
0.116233
0.11659
0.116976
0.117385
0.11781
0.118242
0.118674
0.119095
0.119495
0.119864
0.120189
0.120457
0.120657
0.120776
0.1208
0.120719
0.120521
0.120196
0.119737
0.119137
0.118391
0.117497
0.116457
0.115274
0.113954
0.112505
0.110938
0.109265
0.107502
0.105663
0.103765
0.101826
0.0998623
0.0978912
0.0959292
0.0939919
0.0920942
0.0902496
0.0884708
0.086769
0.0851544
0.0836359
0.0822212
0.080917
0.0797292
0.0786627
0.0777217
0.0769095
0.0762289
0.0756822
0.0752708
0.074996
0.0748584
0.114743
0.114796
0.1149
0.115055
0.115259
0.115511
0.115806
0.116141
0.116513
0.116916
0.117343
0.117789
0.118245
0.118703
0.119152
0.119583
0.119983
0.120341
0.120643
0.120876
0.121028
0.121083
0.121031
0.120859
0.120556
0.120113
0.119523
0.118782
0.117887
0.116838
0.115639
0.114297
0.11282
0.11122
0.109509
0.107705
0.105822
0.10388
0.101895
0.0998862
0.0978712
0.0958671
0.0938902
0.0919555
0.0900769
0.0882673
0.0865378
0.0848985
0.0833584
0.0819248
0.0806044
0.0794027
0.0783244
0.0773738
0.0765539
0.0758672
0.0753157
0.074901
0.0746239
0.0744852
0.114551
0.114606
0.114715
0.114877
0.11509
0.115352
0.115661
0.116014
0.116405
0.116831
0.117285
0.11776
0.11825
0.118743
0.119232
0.119704
0.120149
0.120553
0.120902
0.121183
0.121381
0.121481
0.12147
0.121334
0.121062
0.120642
0.120068
0.119334
0.118436
0.117374
0.116153
0.114779
0.113262
0.111615
0.109851
0.107988
0.106043
0.104037
0.101988
0.0999157
0.097839
0.0957759
0.0937434
0.0917571
0.0898313
0.0879788
0.0862109
0.0845377
0.0829678
0.0815084
0.0801657
0.078945
0.0778508
0.0768874
0.0760571
0.0753621
0.0748042
0.0743848
0.0741048
0.0739647
0.114308
0.114365
0.114479
0.114649
0.114874
0.11515
0.115477
0.11585
0.116267
0.116721
0.117208
0.11772
0.118251
0.118791
0.11933
0.119856
0.120358
0.120821
0.121231
0.121574
0.121832
0.12199
0.122032
0.121944
0.121712
0.121324
0.120771
0.120045
0.119144
0.118066
0.116816
0.115401
0.113832
0.112122
0.110288
0.108349
0.106324
0.104235
0.102102
0.0999476
0.0977913
0.0956526
0.0935491
0.0914972
0.0895114
0.0876049
0.0857889
0.0840733
0.0824663
0.0809748
0.0796044
0.0783602
0.0772471
0.076268
0.0754249
0.0747198
0.0741544
0.0737294
0.0734458
0.0733039
0.114008
0.114069
0.114189
0.114368
0.114606
0.114899
0.115246
0.115645
0.11609
0.116579
0.117106
0.117663
0.118244
0.11884
0.11944
0.120032
0.120604
0.121141
0.121628
0.122047
0.12238
0.122612
0.122722
0.122696
0.122515
0.122168
0.121642
0.120928
0.120023
0.118926
0.11764
0.116173
0.114539
0.112751
0.110829
0.108793
0.106667
0.104474
0.102238
0.0999813
0.0977267
0.0954947
0.0933043
0.0911724
0.0891141
0.0871424
0.0852687
0.0835023
0.0818512
0.0803216
0.0789188
0.0776476
0.0765124
0.075515
0.0746572
0.0739407
0.0733664
0.072935
0.0726473
0.0725035
0.113647
0.113711
0.113838
0.114028
0.11428
0.114593
0.114964
0.115391
0.11587
0.116399
0.116971
0.117581
0.118221
0.118884
0.119556
0.120228
0.120884
0.12151
0.122089
0.122603
0.12303
0.123352
0.123548
0.123598
0.123483
0.123187
0.122696
0.122
0.121092
0.119971
0.118641
0.117112
0.115396
0.113512
0.111481
0.109328
0.107078
0.104758
0.102395
0.100014
0.0976413
0.0952975
0.0930033
0.0907764
0.0886324
0.0865843
0.0846432
0.0828181
0.0811162
0.0795428
0.0781029
0.0768018
0.0756418
0.0746241
0.07375
0.0730207
0.0724367
0.0719984
0.0717062
0.0715602
0.11322
0.113288
0.113423
0.113625
0.113894
0.114227
0.114624
0.115083
0.1156
0.116174
0.116798
0.117468
0.118176
0.118916
0.119673
0.120438
0.121194
0.121927
0.122617
0.123244
0.123785
0.124218
0.124518
0.124663
0.12463
0.1244
0.123954
0.12328
0.122371
0.121223
0.119841
0.118235
0.116421
0.114419
0.112256
0.109959
0.107558
0.105085
0.10257
0.100042
0.0975278
0.0950521
0.0926363
0.090299
0.088056
0.0859204
0.0839027
0.0820112
0.080252
0.0786302
0.0771502
0.0758163
0.0746293
0.0735897
0.0726982
0.0719553
0.0713611
0.0709155
0.0706187
0.0704704
0.112726
0.112798
0.112942
0.113156
0.113442
0.113797
0.114223
0.114716
0.115275
0.115898
0.116581
0.117318
0.118103
0.118929
0.119784
0.120655
0.121529
0.122386
0.123207
0.12397
0.124648
0.125215
0.125643
0.125905
0.125974
0.125824
0.125436
0.124793
0.123884
0.122705
0.12126
0.119563
0.11763
0.115486
0.113162
0.110692
0.10811
0.105454
0.102758
0.100056
0.0973764
0.0947474
0.0921915
0.089728
0.0873728
0.0851388
0.083036
0.0810713
0.0792494
0.0775749
0.0760527
0.0746842
0.0734688
0.0724064
0.071497
0.0707403
0.0701358
0.0696829
0.0693815
0.069231
0.112161
0.112237
0.112389
0.112616
0.11292
0.113299
0.113754
0.114284
0.114888
0.115564
0.116309
0.11712
0.11799
0.118913
0.119879
0.120872
0.12188
0.122883
0.123858
0.12478
0.125622
0.126351
0.126934
0.127338
0.127532
0.127485
0.12717
0.126567
0.125661
0.124447
0.122929
0.121121
0.119044
0.11673
0.114212
0.111534
0.108736
0.105862
0.102953
0.100046
0.0971752
0.0943699
0.0916545
0.0890489
0.0865688
0.0842264
0.0820303
0.0799864
0.0780982
0.0763688
0.0748029
0.0733986
0.0721543
0.0710692
0.0701421
0.069372
0.0687577
0.0682979
0.0679921
0.0678396
0.11152
0.1116
0.11176
0.112001
0.112322
0.112725
0.11321
0.113778
0.114428
0.115161
0.115973
0.116864
0.117827
0.118856
0.119945
0.121077
0.122237
0.123407
0.124561
0.125672
0.126708
0.12763
0.128401
0.128981
0.129329
0.129409
0.129187
0.128637
0.12774
0.126487
0.124882
0.122941
0.120692
0.118171
0.115421
0.112492
0.109436
0.106305
0.103145
0.1
0.0969094
0.0939035
0.0910086
0.0882449
0.0856276
0.0831675
0.0808713
0.0787437
0.0767866
0.0750022
0.0733921
0.0719521
0.0706797
0.0695728
0.0686293
0.0678469
0.0672237
0.0667578
0.0664483
0.0662939
0.110799
0.110883
0.111051
0.111304
0.111643
0.112069
0.112584
0.11319
0.113887
0.114678
0.11556
0.116535
0.117598
0.118744
0.119967
0.121253
0.122587
0.123947
0.125309
0.12664
0.127905
0.129059
0.130057
0.130851
0.131391
0.13163
0.131527
0.131047
0.130165
0.128869
0.127162
0.125064
0.122606
0.119834
0.116803
0.113575
0.110211
0.106775
0.103322
0.0999023
0.0965593
0.0933272
0.0902325
0.0872953
0.0845297
0.0819441
0.0795429
0.0773287
0.0753028
0.0734641
0.0718107
0.0703368
0.0690385
0.0679121
0.0669543
0.0661615
0.065531
0.0650603
0.0647478
0.0645921
0.109994
0.110082
0.110257
0.110521
0.110876
0.111323
0.111867
0.112509
0.113253
0.114102
0.115056
0.116118
0.117287
0.118557
0.119926
0.121382
0.12291
0.124487
0.126088
0.127676
0.129212
0.130643
0.131916
0.132971
0.133748
0.134188
0.134237
0.13385
0.132994
0.131651
0.129824
0.127535
0.124825
0.12175
0.118379
0.114789
0.111058
0.107261
0.103465
0.099729
0.0960999
0.0926146
0.0893001
0.0861752
0.0832512
0.0805343
0.0780261
0.0757263
0.0736335
0.0717426
0.0700489
0.0685446
0.067224
0.0660817
0.0651127
0.0643125
0.063677
0.0632033
0.0628891
0.0627326
0.109101
0.109191
0.109372
0.109646
0.110014
0.110481
0.11105
0.111727
0.112515
0.113419
0.114445
0.115595
0.116872
0.118275
0.1198
0.121442
0.123183
0.125005
0.12688
0.128767
0.130622
0.132385
0.133991
0.135366
0.136438
0.13713
0.137374
0.137111
0.136296
0.134904
0.132934
0.130416
0.127398
0.123952
0.120167
0.11614
0.111969
0.107745
0.10355
0.0994505
0.0954987
0.0917329
0.0881795
0.0848543
0.0817647
0.0789136
0.0762991
0.0739182
0.0717628
0.0698245
0.0680962
0.0665672
0.0652298
0.0640766
0.0631008
0.0622968
0.0616595
0.0611851
0.0608708
0.0607143
0.108117
0.108209
0.108394
0.108674
0.109053
0.109535
0.110126
0.110831
0.111659
0.112615
0.113709
0.114945
0.116332
0.11787
0.119561
0.121402
0.123378
0.125473
0.127658
0.129892
0.132123
0.134283
0.136292
0.138061
0.139499
0.140511
0.141007
0.14091
0.140158
0.138715
0.136577
0.133779
0.130383
0.126482
0.12219
0.117631
0.11293
0.108201
0.103541
0.0990266
0.0947137
0.0906409
0.0868317
0.083297
0.0800386
0.0770542
0.0743397
0.0718842
0.0696736
0.0676965
0.0659419
0.0643963
0.0630495
0.0618919
0.0609153
0.0601123
0.0594771
0.0590048
0.0586924
0.0585368
0.107039
0.107133
0.107319
0.107603
0.107988
0.10848
0.109085
0.109813
0.110672
0.111674
0.112828
0.114147
0.115639
0.117313
0.119175
0.121226
0.123457
0.125854
0.12839
0.131022
0.133693
0.136329
0.138827
0.141082
0.142978
0.144396
0.14522
0.145346
0.144688
0.143195
0.140859
0.137718
0.133853
0.129387
0.124468
0.119259
0.113919
0.10859
0.10339
0.098404
0.0936913
0.0892871
0.0852087
0.0814605
0.0780366
0.0749279
0.0721234
0.0696033
0.0673489
0.0653453
0.0635759
0.0620242
0.0606775
0.059524
0.0585536
0.0577575
0.057129
0.0566625
0.0563541
0.0562007
0.105868
0.105961
0.106146
0.106429
0.106814
0.107308
0.10792
0.108661
0.109543
0.110579
0.111784
0.113173
0.114764
0.116569
0.118601
0.12087
0.123372
0.126098
0.129027
0.132116
0.135302
0.138504
0.141599
0.144454
0.146926
0.148863
0.150115
0.150541
0.150024
0.148489
0.145914
0.142349
0.137899
0.132725
0.127024
0.121011
0.114894
0.108853
0.103028
0.0975121
0.0923631
0.0876085
0.0832543
0.0792952
0.0757162
0.0724997
0.0696214
0.0670536
0.0647723
0.0627581
0.0609886
0.0594441
0.0581092
0.0569699
0.0560143
0.0552322
0.0546159
0.0541592
0.0538575
0.0537076
0.104603
0.104693
0.104874
0.105151
0.105529
0.106017
0.106625
0.107367
0.108257
0.109312
0.110552
0.111999
0.113673
0.115598
0.117794
0.12028
0.123064
0.126144
0.129508
0.133117
0.136906
0.140782
0.144605
0.148202
0.151394
0.153995
0.15581
0.156647
0.156341
0.154777
0.151919
0.147824
0.142633
0.136562
0.129876
0.122862
0.115794
0.108906
0.102362
0.0962588
0.0906433
0.0855281
0.0809022
0.0767456
0.0730345
0.0697334
0.0668045
0.0642124
0.0619275
0.0599231
0.0581718
0.0566508
0.0553419
0.0542288
0.0532977
0.0525376
0.0519398
0.0514975
0.0512056
0.0510606
0.103246
0.103332
0.103504
0.103769
0.104131
0.104603
0.105194
0.105921
0.106802
0.107858
0.109113
0.110593
0.11233
0.114355
0.116698
0.119392
0.122459
0.125911
0.129747
0.133942
0.138431
0.143113
0.147826
0.152346
0.156444
0.159899
0.162459
0.163861
0.163866
0.162302
0.159104
0.154339
0.148197
0.140973
0.13303
0.124753
0.116516
0.108625
0.101265
0.0945232
0.0884229
0.0829527
0.078077
0.0737549
0.0699447
0.0665914
0.0636442
0.0610591
0.0587998
0.0568306
0.0551197
0.0536415
0.0523749
0.0513014
0.0504061
0.0496769
0.0491046
0.0486816
0.0484029
0.0482644
0.101802
0.101881
0.10204
0.102284
0.102622
0.103064
0.103624
0.104318
0.105169
0.1062
0.107442
0.108928
0.110697
0.11279
0.115252
0.11813
0.121468
0.125295
0.129633
0.134475
0.13977
0.145411
0.151219
0.156887
0.162101
0.166655
0.170211
0.172402
0.172877
0.171371
0.167768
0.16215
0.154777
0.146061
0.136501
0.126621
0.116908
0.107829
0.0995637
0.0921503
0.0855693
0.0797717
0.07469
0.0702553
0.066395
0.0630357
0.060114
0.0575768
0.0553778
0.0534739
0.0518296
0.0504161
0.04921
0.0481913
0.047344
0.0466556
0.046116
0.0457179
0.0454557
0.0453255
0.100275
0.100345
0.100485
0.100703
0.101005
0.101404
0.101914
0.102555
0.103349
0.104327
0.105522
0.106975
0.108733
0.11085
0.113386
0.116406
0.119983
0.12417
0.12902
0.134562
0.140774
0.147562
0.154726
0.161867
0.168488
0.174464
0.179354
0.182648
0.18382
0.182451
0.178344
0.171598
0.162581
0.151879
0.140191
0.128217
0.116679
0.106249
0.0970214
0.0889464
0.0819304
0.0758685
0.0706546
0.0661785
0.0623352
0.0590319
0.0561917
0.053752
0.0516546
0.049851
0.0483026
0.0469783
0.0458527
0.0449049
0.0441185
0.0434809
0.042982
0.0426141
0.0423721
0.042252
0.0986764
0.0987337
0.0988502
0.0990315
0.0992861
0.0996262
0.100068
0.100631
0.101341
0.10223
0.103337
0.104709
0.106402
0.108483
0.11103
0.114127
0.11788
0.12238
0.127722
0.133987
0.141214
0.149359
0.158223
0.167265
0.175384
0.183216
0.189902
0.194781
0.197031
0.195979
0.191293
0.183095
0.171921
0.158617
0.144176
0.129575
0.115463
0.103513
0.093335
0.084677
0.077331
0.0711172
0.0658782
0.0614574
0.0577198
0.0545523
0.0518633
0.0495778
0.0476292
0.0459652
0.044545
0.0433359
0.0423118
0.0414517
0.0407397
0.0401631
0.0397124
0.0393804
0.039162
0.0390537
0.0970163
0.0970587
0.0971454
0.0972819
0.0974767
0.0977418
0.0980932
0.098552
0.0991448
0.0999054
0.100876
0.10211
0.103671
0.105639
0.108108
0.111189
0.115017
0.119737
0.125502
0.132464
0.14076
0.150487
0.161486
0.173242
0.179044
0.188836
0.197575
0.204696
0.20898
0.209357
0.205179
0.196439
0.183741
0.168168
0.151014
0.13361
0.11237
0.0990813
0.0881284
0.0790757
0.0715756
0.0653814
0.0602681
0.0560334
0.0525148
0.0495803
0.0471233
0.0450566
0.0433089
0.0418269
0.0405688
0.0395019
0.0386004
0.0378449
0.0372201
0.0367145
0.0363196
0.0360286
0.0358372
0.0357423
0.0953098
0.0953346
0.0953859
0.0954688
0.0955912
0.0957647
0.0960045
0.0963312
0.0967717
0.0973604
0.0981411
0.0991707
0.10052
0.102277
0.104555
0.107488
0.111245
0.116029
0.12207
0.129617
0.13893
0.15037
0.164298
0.172918
0.188444
0.201035
0.212853
0.223074
0.229765
0.231074
0.22588
0.21421
0.197109
0.176343
0.153889
0.131759
0.113237
0.0920898
0.0809833
0.0718715
0.0644826
0.0585393
0.0537488
0.0498665
0.0467051
0.0441171
0.0419805
0.0402023
0.0387114
0.0374551
0.0363931
0.0354947
0.0347365
0.0341012
0.0335758
0.0331503
0.0328177
0.0325725
0.032411
0.032331
0.0935747
0.0935792
0.0935897
0.0936107
0.0936488
0.0937144
0.0938211
0.0939879
0.09424
0.0946106
0.095143
0.0958946
0.0969391
0.0983726
0.100319
0.102936
0.106423
0.111035
0.117095
0.124975
0.13507
0.14794
0.165109
0.177181
0.19533
0.209467
0.224473
0.239088
0.250013
0.254105
0.249305
0.235454
0.2141
0.187943
0.159741
0.126669
0.106106
0.0826049
0.071744
0.0628513
0.0559013
0.0505018
0.0462768
0.0429462
0.0403027
0.0381837
0.0364616
0.0350447
0.0338665
0.0328784
0.0320446
0.031339
0.0307425
0.0302415
0.0298258
0.029488
0.0292233
0.0290277
0.0288987
0.0288347
0.0918311
0.0918132
0.0917783
0.0917298
0.091673
0.0916158
0.0915694
0.0915497
0.0915783
0.0916847
0.0919088
0.0923048
0.0929448
0.0939254
0.0953766
0.0974693
0.100429
0.104552
0.110235
0.117991
0.128381
0.142013
0.161379
0.177298
0.20061
0.222862
0.243873
0.265565
0.282825
0.290151
0.283745
0.263466
0.232509
0.195998
0.158679
0.118643
0.0966189
0.0704448
0.060156
0.0518282
0.0457344
0.0412309
0.0378557
0.035304
0.0333515
0.0318289
0.0306159
0.0296313
0.0288177
0.0281358
0.0275581
0.0270657
0.0266459
0.0262898
0.0259917
0.0257475
0.0255546
0.0254113
0.0253164
0.0252693
0.0901017
0.0900596
0.0899757
0.0898519
0.0896914
0.0894992
0.0892826
0.089053
0.0888262
0.0886256
0.0884837
0.0884468
0.0885792
0.0889705
0.0897452
0.0910748
0.093196
0.0964258
0.101205
0.108162
0.118055
0.131549
0.151958
0.171727
0.199861
0.229786
0.260955
0.294808
0.32412
0.338878
0.331265
0.301086
0.255426
0.204399
0.155847
0.107384
0.082605
0.0548022
0.0457002
0.0385905
0.033928
0.0307504
0.0285539
0.0270262
0.0259377
0.0251347
0.0245189
0.0240286
0.0236229
0.0232773
0.0229764
0.0227116
0.0224782
0.0222739
0.022098
0.0219502
0.0218314
0.0217416
0.0216817
0.0216518
0.0884109
0.0883435
0.0882084
0.0880056
0.0877356
0.0873996
0.0870003
0.0865426
0.0860349
0.0854911
0.0849325
0.0843923
0.0839196
0.083587
0.0835006
0.0838128
0.0847472
0.0866166
0.0898624
0.095162
0.103449
0.115488
0.13519
0.1583
0.190378
0.228997
0.273506
0.327065
0.378726
0.409342
0.400763
0.352455
0.281467
0.208562
0.145854
0.0884493
0.0620985
0.0344618
0.0278214
0.0229954
0.02052
0.0191821
0.018524
0.0182612
0.0181967
0.0182206
0.0182732
0.0183229
0.0183541
0.0183626
0.0183494
0.0183183
0.0182746
0.0182236
0.0181703
0.0181192
0.018074
0.0180377
0.0180124
0.0179995
0.0867841
0.0866913
0.0865044
0.0862216
0.08584
0.0853566
0.084768
0.0840717
0.0832665
0.082354
0.0813408
0.0802411
0.0790814
0.0779062
0.0767878
0.075838
0.0752345
0.0752456
0.076262
0.0789141
0.0841863
0.0928887
0.109127
0.133949
0.166995
0.213458
0.273686
0.356633
0.450444
0.517025
0.508146
0.421799
0.30458
0.199584
0.121008
0.0569466
0.0326424
0.00854062
0.00632715
0.00517451
0.00575472
0.00680256
0.00802544
0.00923642
0.0103209
0.0112459
0.0120081
0.0126185
0.0130952
0.0134596
0.0137319
0.0139308
0.0140723
0.0141701
0.0142355
0.0142775
0.0143034
0.0143183
0.0143263
0.0143297
0.0852471
0.0851298
0.0848927
0.0845319
0.084041
0.0834122
0.0826355
0.0816997
0.0805923
0.0793008
0.0778132
0.0761204
0.0742185
0.0721138
0.0698297
0.067414
0.0649623
0.0626462
0.0607348
0.0596956
0.0603637
0.0633889
0.0723824
0.095675
0.123742
0.173101
0.245116
0.364204
0.536046
0.693901
0.686794
0.50749
0.304378
0.15833
0.0693225
0.00760773
-0.00788386
-0.022885
-0.0182482
-0.0142568
-0.00980517
-0.00590627
-0.00254517
0.000268943
0.00256071
0.0044063
0.00587565
0.00703358
0.00793848
0.00864059
0.00918145
0.00959498
0.00990872
0.0101445
0.0103198
0.010448
0.0105396
0.010602
0.0106408
0.0106594
0.0838251
0.0836851
0.0834017
0.0829684
0.0823756
0.0816102
0.0806552
0.0794902
0.0780906
0.0764281
0.0744701
0.0721805
0.0695198
0.0664473
0.0629243
0.0589152
0.0544003
0.0493983
0.0439766
0.0383064
0.0328303
0.027767
0.025234
0.0418416
0.0550503
0.0956368
0.159118
0.295827
0.581144
1.00646
1.00776
0.564209
0.22166
0.0514557
-0.0226331
-0.0627492
-0.059359
-0.0580624
-0.0443405
-0.0340649
-0.0252092
-0.0182221
-0.0126496
-0.00824166
-0.00478657
-0.00207669
4.12216e-05
0.00169247
0.00297808
0.00397793
0.00475408
0.00535526
0.00581951
0.00617606
0.00644778
0.00665181
0.00680135
0.00690581
0.006972
0.00700396
0.0825413
0.0823817
0.082058
0.0815617
0.0808795
0.0799933
0.0788793
0.0775078
0.0758421
0.0738377
0.0714407
0.0685867
0.0651982
0.0611824
0.0564314
0.0508138
0.044172
0.0363291
0.0270805
0.0161901
0.00345893
-0.0115774
-0.0292774
-0.0254401
-0.0388829
-0.0268123
-0.0116211
0.047506
0.234874
1.36942
1.53429
0.286557
-0.0762574
-0.15844
-0.161339
-0.149843
-0.117011
-0.0929665
-0.0691906
-0.0523455
-0.0391319
-0.0292236
-0.0216472
-0.0158453
-0.0114017
-0.00797556
-0.00533156
-0.00328583
-0.00169803
-0.000462636
0.000499939
0.00125066
0.00183565
0.00229009
0.00264064
0.00290731
0.00310512
0.00324482
0.00333404
0.00337739
0.081416
0.081241
0.0808855
0.080339
0.0795851
0.078601
0.0773568
0.0758142
0.0739251
0.07163
0.0688547
0.065508
0.0614754
0.0566137
0.050745
0.0436421
0.0350074
0.0244551
0.0114757
-0.00461615
-0.0248278
-0.0504189
-0.0849188
-0.0992669
-0.148549
-0.183788
-0.250139
-0.329868
-0.730513
-1.14297
-0.669195
-0.456925
-0.324598
-0.236748
-0.170458
-0.121552
-0.0890411
-0.0667164
-0.0500412
-0.0379138
-0.0288793
-0.0220994
-0.0169846
-0.013085
-0.0101005
-0.00780095
-0.00601784
-0.00462844
-0.00354142
-0.00268849
-0.00201865
-0.00149362
-0.00108473
-0.000770712
-0.000535701
-0.000368483
-0.000261021
-0.000208586
0.0804654
0.0802802
0.0799034
0.0793229
0.0785198
0.0774674
0.0761305
0.074464
0.07241
0.0698963
0.0668319
0.0631021
0.0585619
0.0530247
0.0462525
0.0379353
0.0276568
0.0148519
-0.00126803
-0.0217637
-0.0484591
-0.0832145
-0.132745
-0.167639
-0.25522
-0.351725
-0.525754
-0.685863
0.125386
-0.156095
-2.69329
-1.23008
-0.719461
-0.456072
-0.296758
-0.205626
-0.137192
-0.100005
-0.0748472
-0.0565172
-0.0434112
-0.0337886
-0.0266461
-0.0213036
-0.0172534
-0.0141643
-0.0117836
-0.00993311
-0.00848471
-0.00734414
-0.00644199
-0.00572704
-0.00516121
-0.00471614
-0.00437112
-0.00411073
-0.00392417
-0.0038037
-0.00374459
0.0797007
0.0795111
0.0791253
0.0785299
0.0777039
0.0766182
0.0752337
0.0735003
0.0713533
0.0687114
0.065471
0.0615012
0.0566354
0.050657
0.0432858
0.0341561
0.0227751
0.00847105
-0.00973774
-0.0330864
-0.0640234
-0.104411
-0.163287
-0.215434
-0.331054
-0.488457
-0.817588
-1.58473
-4.00385
-3.71508
-3.10193
-2.66028
-1.41436
-0.804409
-0.495902
-0.306544
-0.211045
-0.135333
-0.0995195
-0.0752513
-0.0576955
-0.045207
-0.0360744
-0.0293085
-0.0242561
-0.0204213
-0.0174879
-0.015213
-0.0134309
-0.0120228
-0.0109017
-0.0100043
-0.00928419
-0.00870707
-0.00824775
-0.0078878
-0.00761358
-0.00741569
-0.0072872
-0.00722388
0.0791266
0.0789394
0.078558
0.0779685
0.077149
0.076069
0.0746875
0.0729516
0.0707933
0.0681263
0.0648408
0.0607979
0.0558203
0.0496788
0.0420759
0.0326249
0.0208082
0.00594813
-0.0130062
-0.037168
-0.0692897
-0.110345
-0.17024
-0.229866
-0.347124
-0.521582
-0.871316
-1.73681
-4.55168
-3.4504
-2.58966
-2.07421
-1.11622
-0.667892
-0.426793
-0.261535
-0.184194
-0.115721
-0.0875077
-0.0679001
-0.0536025
-0.0433523
-0.0358003
-0.0301532
-0.0259045
-0.0226421
-0.0201151
-0.018124
-0.0165383
-0.0152631
-0.0142288
-0.0133853
-0.0126962
-0.0121345
-0.0116805
-0.0113199
-0.0110421
-0.0108398
-0.0107077
-0.0106422
0.0787414
0.0785635
0.0782006
0.0776391
0.076857
0.0758237
0.0744986
0.0728286
0.0707457
0.0681638
0.0649732
0.0610352
0.0561748
0.0501668
0.0427218
0.0334695
0.0219161
0.00747967
-0.0108493
-0.0337731
-0.0640571
-0.101007
-0.154128
-0.209192
-0.300481
-0.432011
-0.61647
-0.889522
-1.13157
-0.357326
-0.279819
-0.656552
-0.540011
-0.396237
-0.284567
-0.178542
-0.132879
-0.0826952
-0.0665414
-0.0543401
-0.0452352
-0.0385089
-0.0334226
-0.0295024
-0.0264794
-0.024082
-0.0221665
-0.0206049
-0.0193198
-0.0182521
-0.0173585
-0.0166084
-0.015979
-0.0154537
-0.0150205
-0.0146705
-0.014397
-0.0141958
-0.0140634
-0.0139976
0.0785362
0.0783745
0.0780444
0.0775328
0.0768188
0.0758737
0.0746584
0.0731229
0.0712026
0.0688159
0.0658598
0.0622037
0.0576854
0.0520995
0.0451842
0.0366213
0.0259669
0.0128033
-0.00377168
-0.0238852
-0.0501615
-0.0800317
-0.12203
-0.165144
-0.220248
-0.288704
-0.311339
-0.245163
0.0976302
0.570138
0.60578
0.121401
-0.0852187
-0.142245
-0.127743
-0.083488
-0.0705146
-0.0432909
-0.0409369
-0.037261
-0.0343356
-0.0318288
-0.029723
-0.0278945
-0.0263558
-0.025005
-0.0238301
-0.0227899
-0.0218714
-0.0210586
-0.02034
-0.019708
-0.0191566
-0.0186811
-0.0182784
-0.017946
-0.017682
-0.0174853
-0.0173548
-0.0172896
0.0784951
0.0783561
0.0780722
0.0776315
0.0770152
0.0761973
0.075143
0.0738071
0.0721318
0.0700443
0.0674532
0.0642432
0.0602728
0.055369
0.0493078
0.04184
0.0325823
0.0213066
0.00722907
-0.00920317
-0.0305016
-0.0526628
-0.083208
-0.113446
-0.138344
-0.159263
-0.108234
0.0271414
0.313347
0.564102
0.58868
0.326831
0.132277
0.0364665
0.00171734
0.00381643
-0.00923978
-0.00459456
-0.0153072
-0.0197246
-0.0229615
-0.0247079
-0.025661
-0.0259945
-0.0259975
-0.0257373
-0.0253367
-0.0248437
-0.0243106
-0.0237664
-0.0232329
-0.0227265
-0.0222586
-0.021837
-0.0214678
-0.0211552
-0.0209022
-0.0207111
-0.0205832
-0.0205189
0.0785952
0.0784849
0.0782593
0.0779084
0.0774164
0.0767613
0.0759137
0.0748359
0.0734792
0.071783
0.0696719
0.0670505
0.0638045
0.0597958
0.0548407
0.0487688
0.0412626
0.0322662
0.0210406
0.00851367
-0.00783502
-0.0232417
-0.0444709
-0.0645512
-0.0710626
-0.0685964
-0.0034095
0.108713
0.279343
0.426468
0.482356
0.351431
0.220085
0.145152
0.0925366
0.0731242
0.0424877
0.0282745
0.00663578
-0.0044554
-0.0130545
-0.01852
-0.0222021
-0.0244821
-0.0258848
-0.02662
-0.0269296
-0.0269396
-0.0267613
-0.0264641
-0.0261004
-0.0257087
-0.0253163
-0.024943
-0.0246032
-0.0243076
-0.0240635
-0.0238767
-0.0237505
-0.0236867
0.0788076
0.0787311
0.0785741
0.0783291
0.0779838
0.0775213
0.0769191
0.0761482
0.0751716
0.0739433
0.072407
0.0704898
0.0681048
0.0651513
0.0614907
0.05703
0.0514943
0.0449734
0.0366964
0.0279186
0.0160431
0.00597502
-0.00863996
-0.0224354
-0.0206989
-0.0119868
0.0441484
0.116659
0.204888
0.316102
0.37341
0.300892
0.254623
0.205145
0.15064
0.123743
0.0807648
0.0517806
0.0222785
0.00644671
-0.00618477
-0.0144211
-0.0201793
-0.0239561
-0.0264487
-0.0279636
-0.0288318
-0.0292381
-0.0293387
-0.0292343
-0.0290016
-0.0286964
-0.0283591
-0.0280192
-0.0276981
-0.0274117
-0.0271712
-0.0269849
-0.0268581
-0.0267938
0.0790981
0.0790592
0.0789789
0.0788522
0.0786709
0.0784241
0.0780969
0.0776706
0.0771209
0.0764183
0.0755269
0.0743973
0.0729719
0.0711918
0.0689544
0.0662387
0.0627935
0.0588308
0.0535046
0.0482391
0.0403603
0.0344319
0.0243923
0.0137026
0.0172317
0.0234231
0.0622411
0.107636
0.156187
0.215726
0.299395
0.308901
0.27639
0.227534
0.184325
0.156315
0.104004
0.0635381
0.0298484
0.0115224
-0.00342411
-0.0132239
-0.0201977
-0.0248609
-0.0280152
-0.0300078
-0.0312192
-0.0318669
-0.0321353
-0.0321439
-0.0319842
-0.0317235
-0.0314106
-0.0310816
-0.0307629
-0.030474
-0.0302286
-0.0300372
-0.0299063
-0.0298398
0.0794287
0.07943
0.0794316
0.0794313
0.0794255
0.0794096
0.079377
0.0793197
0.0792276
0.0790876
0.0788842
0.0785954
0.0781937
0.0776603
0.0769226
0.0760261
0.0747365
0.0733743
0.0710138
0.0691233
0.0650007
0.0625635
0.0561356
0.0464333
0.0484819
0.0488835
0.0801754
0.107483
0.1178
0.177985
0.273304
0.283464
0.261446
0.230861
0.200534
0.167401
0.109503
0.0619619
0.0283614
0.00995471
-0.0053353
-0.015352
-0.0225886
-0.0274536
-0.0307777
-0.0328973
-0.0342014
-0.0349086
-0.0352118
-0.0352367
-0.0350798
-0.0348119
-0.0344856
-0.0341398
-0.0338033
-0.0334971
-0.0332366
-0.0330329
-0.0328935
-0.0328227
0.0797583
0.0798011
0.079887
0.0800169
0.0801917
0.0804133
0.080684
0.0810066
0.0813849
0.0818228
0.0823262
0.0829004
0.0835485
0.0842924
0.0850873
0.0860434
0.0869442
0.0882137
0.0888865
0.0903792
0.0900919
0.0910968
0.0884274
0.0786024
0.0781604
0.0728595
0.098226
0.1066
0.103389
0.154123
0.215482
0.20194
0.173451
0.191815
0.187561
0.147548
0.0939699
0.0466355
0.0177252
0.00173412
-0.0119387
-0.0208338
-0.0273843
-0.0317818
-0.034787
-0.0366765
-0.0378125
-0.0383915
-0.0385911
-0.0385296
-0.0382998
-0.0379692
-0.0375884
-0.0371957
-0.036819
-0.0364795
-0.0361922
-0.0359685
-0.0358157
-0.0357381
0.0800451
0.080129
0.0802985
0.0805576
0.0809116
0.0813689
0.0819401
0.082639
0.0834829
0.0844929
0.0856958
0.0871243
0.0888109
0.0908213
0.0931405
0.0959434
0.0990394
0.102961
0.106775
0.111794
0.115714
0.120612
0.122873
0.112786
0.110301
0.098393
0.103833
0.100553
0.0935794
0.108741
0.121655
0.0848492
0.0440934
0.0936379
0.117912
0.0905437
0.0572893
0.0195176
-0.000833718
-0.0122281
-0.0226333
-0.0293011
-0.0343413
-0.0376838
-0.0399415
-0.0412848
-0.042016
-0.0422899
-0.0422565
-0.0420115
-0.0416355
-0.0411879
-0.0407123
-0.0402425
-0.0398037
-0.0394145
-0.039089
-0.0388372
-0.0386661
-0.0385794
0.0802471
0.0803704
0.08062
0.0810026
0.0815279
0.0822102
0.0830683
0.084126
0.0854135
0.0869683
0.0888376
0.0910803
0.093757
0.0969798
0.100767
0.105362
0.110616
0.117175
0.124228
0.132968
0.141645
0.151226
0.160455
0.15104
0.148269
0.129454
0.11593
0.107162
0.0919664
0.0722128
0.0403712
-0.0761765
-0.106893
-0.0433429
0.0078364
0.00933121
0.00671722
-0.014631
-0.0246206
-0.0301767
-0.0362906
-0.0400252
-0.0429924
-0.044846
-0.0460219
-0.0465683
-0.046707
-0.0465325
-0.0461553
-0.0456442
-0.045059
-0.0444459
-0.0438393
-0.0432655
-0.0427443
-0.0422909
-0.0419165
-0.0416295
-0.0414354
-0.0413374
0.0803245
0.0804839
0.0808072
0.0813032
0.0819857
0.0828745
0.0839953
0.0853809
0.0870736
0.0891257
0.091603
0.0945887
0.0981696
0.102504
0.107647
0.113914
0.121215
0.130308
0.140593
0.153173
0.167157
0.182338
0.201085
0.194422
0.193928
0.172497
0.15886
0.138865
0.108322
0.0706462
0.0030971
-0.177377
-0.247994
-0.161362
-0.0942757
-0.0700663
-0.0458181
-0.0499813
-0.050219
-0.0499364
-0.0515116
-0.0520758
-0.0527089
-0.0528417
-0.0527325
-0.0523174
-0.0517341
-0.05101
-0.0502085
-0.0493677
-0.0485251
-0.0477092
-0.0469425
-0.0462426
-0.0456227
-0.045093
-0.0446609
-0.0443325
-0.0441117
-0.0440006
0.0802402
0.0804315
0.0808194
0.0814149
0.0822353
0.0833046
0.0846543
0.0863251
0.0883695
0.0908524
0.0938551
0.0974825
0.101844
0.10714
0.113465
0.121202
0.130332
0.141706
0.155011
0.171322
0.190856
0.212296
0.242867
0.242434
0.248473
0.23028
0.210455
0.166199
0.118296
0.0784203
-0.00470781
-0.236537
-0.297788
-0.226907
-0.161769
-0.12929
-0.0908075
-0.0820487
-0.0746989
-0.0695301
-0.0669578
-0.0645207
-0.0628289
-0.0611982
-0.0597355
-0.0582897
-0.0569185
-0.0555898
-0.0543175
-0.0531083
-0.0519766
-0.0509336
-0.0499874
-0.0491463
-0.0484161
-0.0478013
-0.0473054
-0.0469313
-0.0466811
-0.0465556
0.0799619
0.0801795
0.0806209
0.0812988
0.0822329
0.0834505
0.0849875
0.0868909
0.0892206
0.092051
0.0954753
0.0996157
0.104598
0.110657
0.117926
0.126843
0.137457
0.150669
0.166514
0.186034
0.210656
0.238192
0.281124
0.291485
0.311946
0.307625
0.256173
0.186842
0.127675
0.0773215
-0.0247446
-0.27568
-0.279164
-0.243683
-0.195806
-0.165141
-0.124784
-0.108857
-0.0963634
-0.0876151
-0.081603
-0.0765807
-0.0727605
-0.0694695
-0.0666976
-0.0642372
-0.0620748
-0.0601294
-0.0583739
-0.0567837
-0.0553503
-0.0540691
-0.0529347
-0.051945
-0.0510985
-0.0503943
-0.0498313
-0.0494092
-0.0491281
-0.0489876
0.0794625
0.0797001
0.0801823
0.080923
0.081943
0.0832718
0.0849488
0.0870241
0.0895626
0.0926444
0.09637
0.100873
0.106287
0.11287
0.120782
0.1305
0.142129
0.15656
0.174149
0.195857
0.224133
0.256336
0.308538
0.333035
0.374457
0.398938
0.294172
0.189905
0.128323
0.083618
-0.0146004
-0.226423
-0.259792
-0.230921
-0.202201