/*--------------------------------*- C++ -*----------------------------------*\
  =========                 |
  \\      /  F ield         | OpenFOAM: The Open Source CFD Toolbox
   \\    /   O peration     | Website:  https://openfoam.org
    \\  /    A nd           | Version:  12
     \\/     M anipulation  |
\*---------------------------------------------------------------------------*/
FoamFile
{
    format      ascii;
    class       surfaceScalarField;
    location    "420";
    object      phi;
}
// * * * * * * * * * * * * * * * * * * * * * * * * * * * * * * * * * * * * * //

dimensions      [0 3 -1 0 0 0 0];

internalField   nonuniform List<scalar> 
32440
(
-1.27523e-07
0.0399881
1.74704e-06
0.0399881
-3.7527e-07
0.0399901
1.50729e-06
0.0399881
-6.03372e-07
0.0399901
1.29448e-06
0.0399981
1.20298e-06
0.0400101
1.12424e-06
0.0400101
3.06084e-06
0.0400101
5.01521e-06
0.04001
6.99002e-06
0.04001
2.98799e-06
0.040004
3.01137e-06
0.04
3.06332e-06
0.0399999
3.14629e-06
0.0399999
3.26258e-06
0.0399999
3.41404e-06
0.0399998
3.60205e-06
0.0399998
3.82734e-06
0.0399998
4.08981e-06
0.0399997
4.38849e-06
0.0399997
4.7214e-06
0.0399997
5.08563e-06
0.0399996
5.47713e-06
0.0399996
5.89087e-06
0.0399996
6.32092e-06
0.0399996
6.76055e-06
0.0399996
7.20203e-06
0.0399996
6.03845e-06
0.0400012
8.00972e-07
0.0400052
-3.35289e-07
0.0400011
-1.61237e-07
0.0399998
1.77745e-07
0.0399997
4.75912e-07
0.0399997
1.72859e-06
0.0399987
1.93236e-06
0.0399998
2.0848e-06
0.0399998
2.18488e-06
0.0399999
2.23262e-06
0.04
2.22903e-06
0.04
2.17603e-06
0.0400001
2.07619e-06
0.0400001
1.93263e-06
0.0400001
1.74888e-06
0.0400002
1.5285e-06
0.0400002
1.27533e-06
0.0400003
9.9317e-07
0.0400003
6.86255e-07
0.0400003
3.56767e-07
0.0400003
8.61909e-09
0.0400003
-3.5536e-07
0.0400004
-2.73247e-06
0.0400024
-9.11932e-06
0.0400064
-3.51594e-06
0.0400064
7.9462e-08
0.0400084
-3.30797e-07
0.0400104
1.25528e-06
0.0399984
8.38658e-07
0.0399884
4.20389e-07
0.0399904
0.0399884
-5.81649e-07
0.0399887
-1.15501e-06
0.0399887
-1.71395e-06
0.0399907
-2.251e-06
0.0399887
-7.58298e-07
0.0399886
7.72122e-07
0.0399966
2.34891e-06
0.0400085
1.98135e-06
0.0400104
3.67941e-06
0.0400084
7.45292e-06
0.0400063
1.13135e-05
0.0400062
3.27219e-06
0.040012
-6.63602e-07
0.0400039
-4.81759e-07
0.0399998
-1.73058e-07
0.0399996
2.71446e-07
0.0399994
8.58723e-07
0.0399993
1.59379e-06
0.0399991
2.47921e-06
0.0399989
3.51474e-06
0.0399987
4.69602e-06
0.0399985
6.01552e-06
0.0399983
7.46188e-06
0.0399982
9.01962e-06
0.0399981
1.06693e-05
0.0399979
1.25881e-05
0.0399977
1.43498e-05
0.0399978
1.57265e-05
0.0399982
1.60873e-05
0.0400008
1.20957e-05
0.0400092
1.224e-05
0.040001
1.37723e-05
0.0399983
1.51723e-05
0.0399983
1.64169e-05
0.0399985
1.62864e-05
0.0399989
1.71676e-05
0.0399989
1.78466e-05
0.0399992
1.83194e-05
0.0399994
1.85843e-05
0.0399997
1.86439e-05
0.0399999
1.85043e-05
0.0400002
1.81742e-05
0.0400004
1.76649e-05
0.0400007
1.69907e-05
0.0400009
1.81623e-05
0.039999
1.71955e-05
0.0400012
1.61051e-05
0.0400014
1.49043e-05
0.0400015
1.36083e-05
0.0400016
1.22304e-05
0.0400017
8.77991e-06
0.0400038
3.27104e-06
0.0400079
-2.87031e-07
0.0400099
1.09619e-07
0.040006
4.7154e-07
0.040008
8.06836e-07
0.0400101
5.12216e-06
0.0399941
1.42284e-06
0.0399921
1.71415e-06
0.0399901
0.0399901
-1.15364e-06
0.0399899
-2.29224e-06
0.0399898
-1.40426e-06
0.0399898
-2.47624e-06
0.0399897
-5.49384e-06
0.0399916
-4.4152e-07
0.0399915
-1.30532e-06
0.0400094
-6.6241e-08
0.0400092
1.29184e-06
0.040007
2.78943e-06
0.0400048
4.44397e-06
0.0400045
-3.71887e-06
0.0400202
-5.68956e-06
0.0400059
-5.44596e-06
0.0399995
-4.96832e-06
0.0399991
-4.24213e-06
0.0399987
-3.25354e-06
0.0399983
-1.99291e-06
0.0399978
3.54515e-06
0.0399934
1.36218e-06
0.0400009
3.44973e-06
0.0399964
5.79563e-06
0.039996
8.38011e-06
0.0399956
1.11761e-05
0.0399953
1.41491e-05
0.039995
1.72584e-05
0.0399945
2.04569e-05
0.0399946
2.36921e-05
0.0399949
2.53119e-05
0.0399992
2.27735e-05
0.0400118
2.42808e-05
0.0399995
2.69179e-05
0.0399957
2.95242e-05
0.0399957
3.18562e-05
0.0399961
3.48776e-05
0.0399959
3.65582e-05
0.0399972
3.78808e-05
0.0399978
3.88344e-05
0.0399985
3.94099e-05
0.0399991
3.96129e-05
0.0399997
3.94533e-05
0.0400004
3.89463e-05
0.0400009
3.81136e-05
0.0400015
3.69709e-05
0.040002
3.35487e-05
0.0400025
3.18708e-05
0.0400029
2.99656e-05
0.0400033
2.98543e-05
0.0400016
2.75632e-05
0.0400039
2.31164e-05
0.0400062
1.85361e-05
0.0400084
5.84972e-06
0.0400206
9.05699e-06
0.0400067
8.18248e-06
0.0400069
7.24318e-06
0.040009
8.25212e-06
0.0400091
9.22243e-06
0.0399931
6.1637e-06
0.0399952
3.08635e-06
0.0399932
0.0399932
-1.78065e-06
0.0399916
-3.5397e-06
0.0399916
-5.26109e-06
0.0399915
-6.92554e-06
0.0399914
-6.51256e-06
0.0399912
-8.00088e-06
0.039993
-3.36753e-06
0.0400047
-2.58977e-06
0.0400084
-1.63911e-06
0.0400061
-2.49104e-06
0.0400056
-3.11342e-06
0.0400051
-7.47522e-06
0.0400246
-1.15579e-05
0.04001
-1.33273e-05
0.0400013
-1.27585e-05
0.0399986
-9.8238e-06
0.0399958
-6.50484e-06
0.039995
5.21284e-06
0.0399861
1.3342e-05
0.0399852
3.89234e-06
0.0400103
8.43673e-07
0.0399995
4.18262e-06
0.0399927
7.88253e-06
0.0399919
1.19049e-05
0.0399912
1.62013e-05
0.0399907
2.07125e-05
0.03999
2.53701e-05
0.0399899
2.99001e-05
0.0399904
3.32187e-05
0.0399959
3.21662e-05
0.0400128
3.51022e-05
0.0399965
3.91025e-05
0.0399917
4.31729e-05
0.0399916
4.66508e-05
0.0399926
4.84814e-05
0.039994
5.10212e-05
0.0399947
5.30396e-05
0.0399958
5.45189e-05
0.039997
5.74507e-05
0.0399962
5.78403e-05
0.0399994
5.77015e-05
0.0400005
5.70594e-05
0.0400016
5.59322e-05
0.0400026
5.43615e-05
0.0400036
5.23836e-05
0.0400044
5.0029e-05
0.0400053
4.73367e-05
0.040006
4.23509e-05
0.0400066
4.11002e-05
0.0400052
3.76209e-05
0.0400097
2.39492e-05
0.0400221
2.01142e-05
0.0400244
1.61255e-05
0.0400107
1.40183e-05
0.040009
1.18163e-05
0.0400112
1.55403e-05
0.0400053
1.12039e-05
0.0399975
8.82541e-06
0.0399976
4.41881e-06
0.0399976
0.0399976
-2.45839e-06
0.0399941
-4.88869e-06
0.039994
-7.27133e-06
0.0399939
-9.58121e-06
0.0399937
-1.17939e-05
0.0399934
-1.188e-05
0.0399931
-5.8111e-06
0.0399987
-7.55581e-06
0.0400102
-9.08067e-06
0.0400076
-8.34887e-06
0.0400049
-7.32236e-06
0.0400041
-7.95782e-06
0.0400252
-1.62205e-05
0.0400182
-1.8078e-05
0.0400031
-1.74877e-05
0.039998
-1.6416e-05
0.0399947
-8.83272e-06
0.0399874
7.27989e-06
0.03997
3.95634e-06
0.0399885
-2.80049e-06
0.0400171
-3.01494e-06
0.0399997
1.3002e-06
0.0399883
6.11191e-06
0.0399871
1.13722e-05
0.039986
1.70167e-05
0.039985
2.29672e-05
0.0399841
2.91333e-05
0.0399838
3.54121e-05
0.0399841
4.01014e-05
0.0399912
4.06002e-05
0.0400123
4.505e-05
0.0399921
5.06821e-05
0.039986
5.56899e-05
0.0399866
6.0586e-05
0.0399878
6.54886e-05
0.0399891
6.89427e-05
0.0399912
7.17061e-05
0.0399931
7.37503e-05
0.0399949
7.30778e-05
0.0399969
7.36822e-05
0.0399987
7.35868e-05
0.0400006
7.48219e-05
0.0400003
7.34237e-05
0.040004
7.14409e-05
0.0400056
6.89095e-05
0.040007
6.58903e-05
0.0400083
6.24338e-05
0.0400094
5.85787e-05
0.0400105
5.23851e-05
0.0400114
3.98927e-05
0.0400221
2.31619e-05
0.0400388
3.01819e-05
0.0400174
2.70168e-05
0.0400139
2.17007e-05
0.0400143
2.02601e-05
0.0400126
2.27209e-05
0.0400029
1.71053e-05
0.0400031
1.14326e-05
0.0400032
5.72366e-06
0.0400033
0.0400034
-3.19595e-06
0.0399973
-4.35689e-06
0.0399952
-7.46189e-06
0.039997
-1.04811e-05
0.0399967
-1.33838e-05
0.0399963
-1.61363e-05
0.0399958
-1.47028e-05
0.0399972
-1.10452e-05
0.0400065
-1.31224e-05
0.0400097
-1.48883e-05
0.0400067
-1.42983e-05
0.0400035
2.69784e-06
0.0400082
-1.58187e-05
0.0400367
-2.3845e-05
0.0400112
-2.53147e-05
0.0399994
-2.21817e-05
0.0399916
-1.24096e-05
0.0399776
-5.95805e-06
0.0399635
-6.78774e-06
0.0399894
-1.0894e-05
0.0400212
-8.29938e-06
0.0399971
-3.01588e-06
0.0399831
2.91805e-06
0.0399812
9.44349e-06
0.0399794
1.64804e-05
0.039978
2.39318e-05
0.0399766
3.18826e-05
0.0399758
3.94055e-05
0.0399766
4.59569e-05
0.0399846
4.81171e-05
0.0400102
5.41832e-05
0.039986
6.11583e-05
0.039979
6.80022e-05
0.0399797
7.37967e-05
0.039982
7.80522e-05
0.0399849
8.24937e-05
0.0399868
8.80581e-05
0.0399875
9.07197e-05
0.0399923
9.24688e-05
0.0399951
9.33124e-05
0.0399979
9.3282e-05
0.0400006
9.04012e-05
0.0400032
8.87389e-05
0.0400057
8.83332e-05
0.040006
8.52633e-05
0.04001
8.15788e-05
0.040012
7.73489e-05
0.0400137
7.26344e-05
0.0400152
6.54955e-05
0.0400185
4.99992e-05
0.0400376
4.61948e-05
0.0400426
4.20928e-05
0.0400215
3.57679e-05
0.0400202
3.12582e-05
0.0400188
3.46019e-05
0.0400093
2.7818e-05
0.0400097
2.09406e-05
0.04001
1.39953e-05
0.0400102
7.00572e-06
0.0400103
0.0400104
-4.00171e-06
0.0400013
-7.96226e-06
0.0399991
-1.18594e-05
0.0400009
-1.56595e-05
0.0400005
-1.93274e-05
0.04
-2.2824e-05
0.0399993
-2.41077e-05
0.0399985
-1.91307e-05
0.0400015
-1.98491e-05
0.0400104
-2.02055e-05
0.040007
-2.2143e-05
0.0400055
-1.96032e-05
0.0400057
-1.84951e-05
0.0400356
-3.27847e-05
0.0400255
-3.2413e-05
0.0399991
-2.53122e-05
0.0399845
-3.44557e-06
0.0399557
-1.67154e-05
0.0399768
-1.71103e-05
0.0399898
-1.86071e-05
0.0400227
-1.52268e-05
0.0399937
-8.97843e-06
0.0399768
-1.90338e-06
0.0399741
5.92953e-06
0.0399716
1.44255e-05
0.0399695
2.36647e-05
0.0399674
3.29056e-05
0.0399666
4.25852e-05
0.0399669
5.07352e-05
0.0399765
5.46957e-05
0.0400062
6.25089e-05
0.0399782
7.13614e-05
0.0399702
7.93666e-05
0.0399717
8.69827e-05
0.0399743
9.42883e-05
0.0399776
9.97904e-05
0.0399813
0.000102222
0.0399851
0.000105545
0.039989
0.000107752
0.0399929
0.000110854
0.0399948
0.000110888
0.0400006
0.000109902
0.0400042
0.000107961
0.0400076
0.000103141
0.0400108
0.000101504
0.0400117
9.71488e-05
0.0400163
9.2139e-05
0.0400187
8.65548e-05
0.0400208
6.84763e-05
0.0400366
4.60014e-05
0.0400601
5.70968e-05
0.0400315
5.18743e-05
0.0400267
4.6401e-05
0.0400257
4.67128e-05
0.0400185
3.8843e-05
0.0400172
3.08316e-05
0.0400177
2.2712e-05
0.0400181
1.45137e-05
0.0400184
8.26589e-06
0.0400166
0.0400186
-2.88128e-06
0.0400042
-9.71712e-06
0.040006
-1.44833e-05
0.0400057
-1.7143e-05
0.0400032
-2.1659e-05
0.0400045
-2.5987e-05
0.0400037
-3.00782e-05
0.0400026
-2.98842e-05
0.0400013
-2.73442e-05
0.0400078
-3.03978e-05
0.0400101
-3.2973e-05
0.040008
-3.10093e-05
0.0400037
-8.41968e-06
0.040013
-3.1052e-05
0.0400481
-4.49451e-05
0.040013
-3.99802e-05
0.0399795
-3.00996e-05
0.0399459
-2.91922e-05
0.0399759
-2.72287e-05
0.0399878
-2.81649e-05
0.0400236
-2.40213e-05
0.0399896
-1.68094e-05
0.0399696
-8.56393e-06
0.0399658
6.33533e-07
0.0399624
1.0674e-05
0.0399594
2.14127e-05
0.0399566
3.26788e-05
0.0399553
4.42775e-05
0.0399553
5.41935e-05
0.0399666
6.03208e-05
0.0400001
7.00686e-05
0.0399685
8.05555e-05
0.0399597
9.04764e-05
0.0399618
9.94538e-05
0.0399654
0.000108326
0.0399687
0.000114981
0.0399746
0.000120356
0.0399797
0.000124391
0.0399849
0.000127086
0.0399902
0.000126459
0.0399954
0.00012856
0.0399985
0.00012746
0.0400053
0.000125219
0.0400099
0.000121948
0.0400141
0.000117741
0.0400159
0.000112681
0.0400214
0.000106864
0.0400245
9.63998e-05
0.0400312
7.7365e-05
0.0400556
7.18555e-05
0.0400656
6.78753e-05
0.0400355
6.15476e-05
0.040033
6.29299e-05
0.0400243
5.60672e-05
0.0400254
4.70004e-05
0.0400262
3.77752e-05
0.0400269
2.84294e-05
0.0400274
1.89958e-05
0.0400278
9.50605e-06
0.040026
0.0400281
-5.84263e-06
0.04001
-1.16328e-05
0.0400118
-1.53496e-05
0.0400094
-2.29575e-05
0.0400108
-2.64107e-05
0.040008
-3.16652e-05
0.0400089
-3.66677e-05
0.0400076
-4.136e-05
0.040006
-3.76714e-05
0.0400041
-3.95402e-05
0.0400119
-4.28832e-05
0.0400114
-4.56088e-05
0.0400064
-4.16292e-05
0.0400091
-5.07923e-05
0.0400573
-5.30826e-05
0.0400153
-4.23921e-05
0.0399688
-4.46038e-05
0.0399481
-4.36189e-05
0.0399749
-3.9375e-05
0.0399836
-3.98045e-05
0.0400241
-3.49332e-05
0.0399847
-2.67521e-05
0.0399614
-1.73005e-05
0.0399564
-6.66426e-06
0.0399518
5.03005e-06
0.0399478
1.76134e-05
0.0399441
3.08788e-05
0.0399421
4.43855e-05
0.0399418
5.6878e-05
0.0399541
6.50054e-05
0.0399919
7.68968e-05
0.0399566
8.94378e-05
0.0399472
0.000101466
0.0399498
0.000112155
0.0399547
0.000120341
0.0399605
0.000128268
0.0399667
0.000134652
0.0399733
0.000141446
0.0399781
0.000144651
0.039987
0.000146307
0.0399938
0.000144452
0.0400003
0.000145198
0.0400046
0.000142644
0.0400124
0.000138887
0.0400178
0.000132051
0.0400227
0.000128247
0.0400252
0.000119611
0.0400331
9.82265e-05
0.0400526
7.02774e-05
0.0400836
8.76614e-05
0.0400482
8.05798e-05
0.0400426
8.11442e-05
0.0400325
7.13723e-05
0.0400341
6.13324e-05
0.0400354
5.10758e-05
0.0400365
4.0648e-05
0.0400373
3.20925e-05
0.040036
2.144e-05
0.0400385
8.72445e-06
0.0400388
0.0400369
-6.88698e-06
0.0400169
-1.17151e-05
0.0400166
-2.04732e-05
0.0400181
-2.51163e-05
0.0400154
-3.36063e-05
0.0400165
-3.98894e-05
0.0400152
-4.39094e-05
0.0400116
-4.96053e-05
0.0400117
-5.49019e-05
0.0400094
-4.97115e-05
0.0400067
-5.19562e-05
0.0400136
-5.75252e-05
0.040012
-5.83075e-05
0.0400098
-5.01648e-05
0.0400491
-5.50023e-05
0.0400201
-3.47562e-05
0.0399486
-5.51755e-05
0.0399685
-5.62215e-05
0.039976
-5.57945e-05
0.0399831
-5.17972e-05
0.0400201
-4.62293e-05
0.0399791
-3.90744e-05
0.0399543
-2.83744e-05
0.0399457
-1.62092e-05
0.0399396
-2.72764e-06
0.0399343
1.18758e-05
0.0399295
2.75534e-05
0.0399264
4.34196e-05
0.039926
5.81523e-05
0.0399393
6.87439e-05
0.0399814
8.32513e-05
0.0399421
9.81029e-05
0.0399323
0.000111869
0.039936
0.000124685
0.0399419
0.00013653
0.0399487
0.000145844
0.0399574
0.000153325
0.0399658
0.000156926
0.0399745
0.000162655
0.0399813
0.000164563
0.0399919
0.000164745
0.0400002
0.000161295
0.040008
0.000160343
0.0400134
0.000156043
0.0400221
0.000150528
0.0400282
0.000141942
0.0400338
0.000132407
0.0400427
0.000114072
0.0400709
0.000105073
0.0400926
0.000101396
0.0400519
0.000101242
0.0400427
9.06627e-05
0.0400431
7.97339e-05
0.040045
6.85213e-05
0.0400466
5.708e-05
0.0400479
4.7462e-05
0.0400469
3.37018e-05
0.0400497
2.38488e-05
0.0400483
1.1929e-05
0.0400507
0.0400488
-8.01682e-06
0.0400249
-1.59719e-05
0.0400246
-2.18554e-05
0.040024
-3.16334e-05
0.0400252
-3.7253e-05
0.0400221
-4.46746e-05
0.0400226
-5.18307e-05
0.0400188
-5.86559e-05
0.0400186
-6.50692e-05
0.0400159
-7.09789e-05
0.0400127
-6.62789e-05
0.0400089
-6.88571e-05
0.0400146
-7.06113e-05
0.0400116
-3.73858e-05
0.0400159
-6.28576e-05
0.0400456
-7.11722e-05
0.0399569
-7.59963e-05
0.0399733
-7.52423e-05
0.0399752
-6.87655e-05
0.0399767
-5.84434e-05
0.0400097
-6.22089e-05
0.0399829
-5.40853e-05
0.0399461
-4.20803e-05
0.0399337
-2.82852e-05
0.0399258
-1.28512e-05
0.0399188
3.98865e-06
0.0399126
2.19448e-05
0.0399084
4.04657e-05
0.0399074
5.81692e-05
0.0399216
7.15721e-05
0.039968
8.86305e-05
0.039925
0.00010609
0.0399149
0.000122679
0.0399194
0.000137251
0.0399273
0.000149142
0.0399368
0.000159984
0.0399466
0.000170641
0.0399552
0.000177082
0.0399681
0.000179333
0.039979
0.000183467
0.0399877
0.000183603
0.04
0.000181887
0.0400097
0.000178489
0.0400168
0.000173563
0.040027
0.000167287
0.0400345
0.000155832
0.0400452
0.00012736
0.0400711
0.000106052
0.0400922
0.000121922
0.0400767
0.000121148
0.0400527
0.000111853
0.040052
0.00010012
0.0400548
8.80248e-05
0.0400571
7.76398e-05
0.040057
6.50134e-05
0.0400605
5.02072e-05
0.0400618
3.92658e-05
0.0400607
2.42178e-05
0.0400634
1.31127e-05
0.0400618
0.0400619
-9.23159e-06
0.0400342
-1.83989e-05
0.0400337
-2.75024e-05
0.0400331
-3.45038e-05
0.0400322
-4.53665e-05
0.0400329
-5.20321e-05
0.0400293
-6.24473e-05
0.0400292
-6.85294e-05
0.0400246
-7.62091e-05
0.0400235
-8.33723e-05
0.0400198
-8.99079e-05
0.0400155
-8.5677e-05
0.0400103
-8.85404e-05
0.0400145
-8.43594e-05
0.0400117
-7.88282e-05
0.04004
-9.58859e-05
0.0399739
-9.73212e-05
0.0399747
-9.29493e-05
0.0399708
-8.25944e-05
0.0399663
-4.81243e-05
0.0399753
-6.72287e-05
0.040002
-7.01242e-05
0.039949
-5.87663e-05
0.0399223
-4.32147e-05
0.0399103
-2.56385e-05
0.0399013
-6.10061e-06
0.0398931
1.44552e-05
0.0398879
3.62078e-05
0.0398857
5.68872e-05
0.0399009
7.35092e-05
0.0399513
9.37265e-05
0.0399048
0.000114397
0.0398942
0.000133328
0.0399005
0.000150741
0.0399099
0.000166501
0.039921
0.000179
0.0399341
0.000186917
0.0399473
0.000196228
0.0399588
0.000200971
0.0399743
0.000201267
0.0399874
0.000203276
0.039998
0.000201187
0.0400118
0.000195205
0.0400227
0.000191542
0.0400307
0.000182409
0.0400437
0.000161989
0.0400656
0.00012855
0.0401046
0.000136081
0.0400847
0.00014481
0.040068
0.000134894
0.0400626
0.000122434
0.0400645
0.000109517
0.0400677
9.62465e-05
0.0400704
8.2677e-05
0.0400706
6.88736e-05
0.0400743
5.6894e-05
0.0400737
4.27744e-05
0.0400748
2.85566e-05
0.0400776
1.4277e-05
0.0400761
0.0400762
-1.05286e-05
0.0400447
-2.09921e-05
0.0400442
-3.14023e-05
0.0400435
-4.17274e-05
0.0400425
-4.99259e-05
0.0400411
-5.99545e-05
0.0400393
-6.9751e-05
0.040039
-7.92407e-05
0.0400341
-8.83354e-05
0.0400326
-9.69245e-05
0.0400284
-0.000102874
0.0400214
-0.000110053
0.0400175
-0.000108272
0.0400127
-0.000109396
0.0400128
-7.92039e-05
0.0400098
-0.000107165
0.0400019
-0.000117389
0.039985
-0.000117591
0.039971
-0.000111527
0.0399602
-9.4957e-05
0.0399587
-9.96018e-05
0.0400067
-9.35858e-05
0.039943
-7.88285e-05
0.0399076
-6.1382e-05
0.0398928
-4.14401e-05
0.0398813
-1.92883e-05
0.0398709
4.65907e-06
0.0398639
2.96975e-05
0.0398607
5.42498e-05
0.0398764
7.46195e-05
0.039931
9.85092e-05
0.0398809
0.000122444
0.0398703
0.000144942
0.039878
0.000164904
0.0398899
0.000180982
0.0399049
0.00019729
0.0399178
0.000208528
0.039936
0.000214689
0.0399526
0.000221858
0.0399671
0.000224209
0.0399851
0.000221957
0.0400003
0.00022135
0.0400124
0.000216657
0.0400274
0.00021011
0.0400372
0.000195971
0.0400578
0.000174494
0.0400871
0.000163854
0.0401152
0.000170235
0.0400783
0.000159777
0.0400784
0.000146656
0.0400757
0.000132986
0.0400781
0.000118869
0.0400818
0.000106401
0.0400828
8.96377e-05
0.0400873
7.66605e-05
0.0400873
5.95019e-05
0.0400909
4.42199e-05
0.0400901
3.08514e-05
0.0400909
1.54201e-05
0.0400915
0.0400916
-1.19023e-05
0.0400566
-2.1736e-05
0.040054
-3.3538e-05
0.0400553
-4.52761e-05
0.0400543
-5.69183e-05
0.0400528
-6.84215e-05
0.0400508
-7.97287e-05
0.0400503
-9.07656e-05
0.0400452
-0.000101442
0.0400433
-0.000109639
0.0400366
-0.000121224
0.040033
-0.000130027
0.0400263
-0.00013585
0.0400185
-0.000132481
0.0400095
-0.000133701
0.0400111
-0.000141042
0.0400092
-0.000144433
0.0399884
-0.000143508
0.0399701
-0.000139956
0.0399567
-0.000133502
0.0399523
-0.000129826
0.040003
-0.000118949
0.0399322
-0.000102747
0.0398914
-8.32623e-05
0.0398733
-6.0681e-05
0.0398587
-3.53463e-05
0.0398456
-7.52669e-06
0.0398361
2.15623e-05
0.0398316
5.0211e-05
0.0398477
7.49768e-05
0.0399062
0.000103159
0.0398527
0.000131333
0.0398421
0.000157294
0.039852
0.000180417
0.0398668
0.000201057
0.0398843
0.000215341
0.0399035
0.000229942
0.0399214
0.000238909
0.0399437
0.000242395
0.0399636
0.000246639
0.0399808
0.000245951
0.0400009
0.000242625
0.0400158
0.000236999
0.0400331
0.000223388
0.0400509
0.000190106
0.0400911
0.000165461
0.0401118
0.00018951
0.0400912
0.000184555
0.0400833
0.000170818
0.0400922
0.000158422
0.0400881
0.000143503
0.0400931
0.00012815
0.0400972
0.000112461
0.0400985
9.65071e-05
0.0401033
8.03487e-05
0.0401035
6.60402e-05
0.0401052
4.96111e-05
0.0401065
3.30993e-05
0.0401075
1.65397e-05
0.0401081
0.0401081
-1.33449e-05
0.0400699
-2.66289e-05
0.0400673
-3.98971e-05
0.0400686
-5.3133e-05
0.0400675
-6.63124e-05
0.040066
-7.93997e-05
0.0400639
-9.03404e-05
0.0400613
-0.000103071
0.0400579
-0.00011349
0.0400537
-0.000127503
0.0400506
-0.000136934
0.0400424
-0.000147609
0.040037
-0.000157329
0.0400282
-0.000165812
0.0400179
-0.000164765
0.04001
-0.000169819
0.0400143
-0.000172694
0.0399912
-0.000172998
0.0399704
-0.000170309
0.039954
-0.000164242
0.0399462
-0.000158431
0.0399972
-0.000148763
0.0399225
-0.000131095
0.0398737
-0.000109412
0.0398517
-8.38996e-05
0.0398332
-5.49243e-05
0.0398166
-2.30539e-05
0.0398042
1.09805e-05
0.0397975
4.47038e-05
0.039814
7.46649e-05
0.0398762
0.000107929
0.0398195
0.000140679
0.0398093
0.000170884
0.0398218
0.000197628
0.03984
0.000221343
0.0398606
0.000239736
0.0398851
0.000251717
0.0399094
0.000263382
0.039932
0.000268993
0.039958
0.000270909
0.0399789
0.000269484
0.0400024
0.000265189
0.04002
0.000256386
0.0400419
0.000229494
0.0400777
0.00019095
0.0401296
0.000208817
0.0400939
0.000211392
0.0400886
0.000197054
0.0400976
0.000185947
0.0401033
0.000168195
0.0401059
0.00015396
0.0401073
0.000137346
0.0401138
0.000120423
0.0401155
0.000105274
0.0401184
8.59362e-05
0.0401228
6.84736e-05
0.0401227
5.09155e-05
0.0401241
3.5298e-05
0.0401231
1.76322e-05
0.0401257
0.0401258
-1.28398e-05
0.0400828
-2.96355e-05
0.0400841
-4.44372e-05
0.0400834
-5.72415e-05
0.0400803
-7.2046e-05
0.0400808
-8.68166e-05
0.0400787
-0.000101525
0.040076
-0.000116096
0.0400725
-0.000130447
0.0400681
-0.000142457
0.0400626
-0.000157981
0.0400579
-0.000170817
0.0400498
-0.000180727
0.0400381
-0.000191412
0.0400286
-0.000198553
0.0400172
-0.000199689
0.0400154
-0.000206471
0.039998
-0.000206409
0.0399704
-0.000204984
0.0399526
-0.000197703
0.0399389
-0.000176089
0.0399756
-0.000179716
0.0399261
-0.000164572
0.0398586
-0.000140536
0.0398276
-0.000111749
0.0398044
-7.86129e-05
0.0397835
-4.17737e-05
0.0397674
-2.33096e-06
0.0397581
3.76334e-05
0.0397741
7.38241e-05
0.03984
0.000113168
0.0397801
0.000151573
0.0397709
0.000186986
0.0397864
0.000217878
0.0398092
0.000242607
0.0398358
0.000265225
0.0398625
0.000280517
0.0398941
0.00029069
0.0399218
0.000296153
0.0399525
0.000297373
0.0399777
0.000294896
0.0400048
0.000287258
0.0400277
0.000274968
0.0400542
0.000248519
0.0401042
0.000246323
0.0401318
0.000240493
0.0400997
0.00022757
0.0401015
0.000209777
0.0401154
0.00019712
0.0401159
0.000181949
0.040121
0.000164348
0.0401249
0.000146424
0.0401317
0.000128252
0.0401336
0.000109887
0.0401368
9.3404e-05
0.0401393
7.48094e-05
0.0401413
5.61447e-05
0.0401427
3.54257e-05
0.0401438
1.86929e-05
0.0401425
0.0401445
-1.6387e-05
0.0400992
-3.27316e-05
0.0401004
-4.71139e-05
0.0400978
-6.55636e-05
0.0400988
-8.00632e-05
0.0400953
-9.6619e-05
0.0400952
-0.000113198
0.0400925
-0.00012975
0.040089
-0.000146197
0.0400845
-0.000162418
0.0400789
-0.000176281
0.0400718
-0.000191567
0.0400651
-0.000206012
0.0400526
-0.000219325
0.0400419
-0.000231068
0.0400289
-0.000240792
0.0400252
-0.000239999
0.0399972
-0.0002461
0.0399765
-0.000242481
0.039949
-0.000230536
0.039927
-0.000179683
0.0399247
-0.000202663
0.0399491
-0.00020204
0.0398579
-0.000177494
0.0398031
-0.000145062
0.039772
-0.000107149
0.0397456
-6.44855e-05
0.0397247
-1.81562e-05
0.0397118
2.88827e-05
0.039727
7.25964e-05
0.0397963
0.000119289
0.0397334
0.000164678
0.0397255
0.00020582
0.0397453
0.000241517
0.0397735
0.000271799
0.0398056
0.000292737
0.0398415
0.000311171
0.0398757
0.000319535
0.0399134
0.000326386
0.0399457
0.000324431
0.0399797
0.000322435
0.0400068
0.000309036
0.0400411
0.000266931
0.0400963
0.000244683
0.0401264
0.000266355
0.0401101
0.000262678
0.0401034
0.000245957
0.0401182
0.000228464
0.0401329
0.000210238
0.0401341
0.000193584
0.0401377
0.000172585
0.0401459
0.00015534
0.040149
0.000135906
0.0401531
0.000116346
0.0401564
9.66997e-05
0.0401589
7.69951e-05
0.040161
5.92616e-05
0.0401605
3.94954e-05
0.0401636
1.97168e-05
0.0401622
0.0401642
-1.79553e-05
0.0401171
-3.58818e-05
0.0401184
-5.38904e-05
0.0401158
-7.00099e-05
0.0401149
-9.02813e-05
0.0401155
-0.00010669
0.0401116
-0.000125245
0.0401111
-0.000143909
0.0401077
-0.000162618
0.0401032
-0.000181272
0.0400975
-0.000199725
0.0400903
-0.000215768
0.0400812
-0.000235146
0.040072
-0.000249496
0.0400563
-0.000264384
0.0400438
-0.00027724
0.040038
-0.000287503
0.0400075
-0.000286449
0.0399754
-0.000289277
0.0399518
-0.000285147
0.0399228
-0.00026326
0.0399028
-0.000262376
0.0399482
-0.000250549
0.0398461
-0.000221421
0.0397739
-0.000184937
0.0397355
-0.000141505
0.0397021
-9.19682e-05
0.0396752
-3.78119e-05
0.0396576
1.82718e-05
0.0396709
7.11902e-05
0.0397434
0.000126854
0.0396778
0.000180503
0.0396719
0.000228507
0.0396973
0.000269976
0.039732
0.000304179
0.0397714
0.000329394
0.0398163
0.000346676
0.0398584
0.000356644
0.0399035
0.000360272
0.0399421
0.000358546
0.0399814
0.000348396
0.040017
0.000320704
0.0400688
0.000276426
0.0401405
0.000293615
0.0401093
0.000296991
0.0401068
0.000281227
0.0401192
0.000260576
0.0401389
0.000243182
0.0401503
0.000225304
0.040152
0.000203078
0.0401599
0.000184634
0.0401643
0.000164031
0.0401696
0.000143334
0.0401738
0.000122584
0.0401771
0.000103819
0.0401777
8.30347e-05
0.0401817
6.02415e-05
0.0401833
4.14709e-05
0.0401823
1.86861e-05
0.040185
0.0401829
-1.95275e-05
0.0401366
-3.70358e-05
0.0401359
-5.86881e-05
0.0401374
-7.85189e-05
0.0401347
-9.65764e-05
0.0401336
-0.000118915
0.040134
-0.000137516
0.0401297
-0.000158413
0.0401286
-0.00017753
0.0401224
-0.00019881
0.0401188
-0.000220103
0.0401116
-0.00024125
0.0401023
-0.000261947
0.0400927
-0.000281838
0.0400762
-0.000300442
0.0400624
-0.000315133
0.0400527
-0.000329218
0.0400216
-0.000341852
0.039988
-0.000341979
0.0399519
-0.000340571
0.0399214
-0.000330408
0.0398927
-0.00030236
0.0399202
-0.000299479
0.0398432
-0.000273644
0.0397481
-0.000232712
0.0396946
-0.000182965
0.0396524
-0.000125284
0.0396175
-6.11984e-05
0.0395935
5.55001e-06
0.0396042
6.98711e-05
0.0396791
0.000136655
0.039611
0.000200222
0.0396083
0.000257142
0.0396404
0.000305103
0.039684
0.000341395
0.0397351
0.000370713
0.039787
0.000386195
0.0398429
0.000396995
0.0398927
0.000394493
0.0399446
0.000384103
0.0399918
0.00036899
0.0400321
0.000346364
0.0400914
0.000340941
0.040146
0.000335271
0.0401149
0.000320177
0.0401219
0.000296075
0.0401433
0.000273324
0.0401616
0.000257859
0.0401658
0.000236153
0.0401737
0.000216316
0.0401798
0.000194382
0.0401863
0.000172419
0.0401915
0.000150461
0.0401957
0.000130563
0.040197
0.000106682
0.0402016
8.68694e-05
0.0402016
6.50887e-05
0.040205
4.33439e-05
0.0402041
2.16229e-05
0.0402067
0.0402045
-2.10791e-05
0.0401577
-4.21663e-05
0.040157
-6.14279e-05
0.0401567
-8.29635e-05
0.0401562
-0.000106849
0.0401575
-0.000127122
0.0401543
-0.000149853
0.0401524
-0.00017306
0.0401518
-0.000196731
0.040146
-0.000220821
0.0401429
-0.000245226
0.040136
-0.000269776
0.0401269
-0.000292208
0.0401151
-0.000316149
0.0401001
-0.000337131
0.0400834
-0.000356504
0.0400721
-0.000377268
0.0400423
-0.000392575
0.0400033
-0.000403202
0.0399625
-0.00039964
0.0399179
-0.000386573
0.0398796
-0.000322499
0.0398561
-0.000344608
0.0398653
-0.000334049
0.0397376
-0.000290273
0.0396508
-0.000233304
0.0395954
-0.000165772
0.03955
-9.02348e-05
0.039518
-9.79264e-06
0.0395237
6.88345e-05
0.0396005
0.000149543
0.0395303
0.000225892
0.039532
0.000292983
0.0395733
0.000348353
0.0396287
0.00039141
0.039692
0.00042042
0.039758
0.000437159
0.0398262
0.00043951
0.0398903
0.000423707
0.0399604
0.000391547
0.0400239
0.000358669
0.040065
0.00034422
0.0401059
0.000372833
0.0401173
0.000361795
0.040126
0.000339729
0.0401439
0.000314989
0.040168
0.000293743
0.0401829
0.000272217
0.0401873
0.000250671
0.0401953
0.000227155
0.0402033
0.000203724
0.0402097
0.000180412
0.0402148
0.000159245
0.0402169
0.000134189
0.0402221
0.000113279
0.0402225
8.84565e-05
0.0402264
6.77471e-05
0.0402258
4.30833e-05
0.0402287
2.24896e-05
0.0402273
0.040227
-2.25822e-05
0.0401803
-4.51964e-05
0.0401796
-6.80474e-05
0.0401796
-9.12603e-05
0.0401795
-0.000112923
0.0401791
-0.000137153
0.0401785
-0.000162026
0.0401773
-0.000187597
0.0401774
-0.000213926
0.0401724
-0.000240981
0.0401699
-0.000266704
0.0401617
-0.000294969
0.0401551
-0.000323588
0.0401437
-0.000352184
0.0401287
-0.000378305
0.0401095
-0.000397311
0.0400911
-0.00042574
0.0400708
-0.000450979
0.0400286
-0.00046742
0.039979
-0.000477258
0.0399277
-0.000468446
0.0398708
-0.000446784
0.0398344
-0.000437423
0.039856
-0.000408276
0.0397084
-0.00035947
0.039602
-0.000294551
0.0395305
-0.00021557
0.039471
-0.000125069
0.0394275
-2.78379e-05
0.0394265
6.94278e-05
0.0395032
0.000167719
0.039432
0.000259566
0.0394401
0.000339624
0.0394932
0.000404052
0.0395642
0.000451655
0.0396444
0.000479452
0.0397302
0.000491358
0.0398143
0.00047738
0.0399043
0.000456383
0.0399814
0.000444877
0.0400354
0.000412909
0.040097
0.000413361
0.0401054
0.000409611
0.0401211
0.000388824
0.0401467
0.000359424
0.0401733
0.00032979
0.0401976
0.000309846
0.0402028
0.000286102
0.040211
0.000260631
0.0402207
0.000235429
0.0402285
0.000212528
0.0402326
0.00018789
0.0402395
0.00016354
0.0402412
0.00013942
0.0402462
0.000115511
0.0402464
9.37894e-05
0.0402481
6.81829e-05
0.0402514
4.67059e-05
0.0402502
2.32866e-05
0.0402508
0.0402503
-2.40061e-05
0.0402043
-4.80707e-05
0.0402036
-7.24377e-05
0.0402039
-9.52445e-05
0.0402023
-0.000120656
0.0402046
-0.000146798
0.0402046
-0.000175808
0.0402063
-0.000201764
0.0402033
-0.000230787
0.0402014
-0.000258909
0.0401981
-0.000292163
0.0401949
-0.000322443
0.0401854
-0.0003556
0.0401769
-0.000389384
0.0401625
-0.000423289
0.0401434
-0.00045267
0.0401205
-0.00048628
0.0401044
-0.000515026
0.0400573
-0.000539225
0.0400032
-0.000556491
0.039945
-0.000564063
0.0398783
-0.000548891
0.0398193
-0.000521605
0.0398287
-0.000498656
0.0396855
-0.000445238
0.0395486
-0.000371232
0.0394565
-0.000279175
0.0393789
-0.000170849
0.0393192
-5.05531e-05
0.0393062
7.10768e-05
0.0393816
0.000190024
0.039313
0.000302185
0.039328
0.000397966
0.0393974
0.000472717
0.0394895
0.000523467
0.0395937
0.000553054
0.0397006
0.00054443
0.0398229
0.000521421
0.0399273
0.000510897
0.0399919
0.000501947
0.0400444
0.000485113
0.0401138
0.000467658
0.0401229
0.000441001
0.0401478
0.000411882
0.0401759
0.000380738
0.0402045
0.000353799
0.0402246
0.000327234
0.0402294
0.000301261
0.040237
0.000273851
0.0402482
0.000246989
0.0402553
0.000220641
0.040259
0.000194758
0.0402654
0.000169287
0.0402667
0.000146184
0.0402693
0.000119351
0.0402732
9.47752e-05
0.0402727
7.23996e-05
0.0402737
4.81576e-05
0.0402745
2.40038e-05
0.0402749
0.0402743
-2.53175e-05
0.0402296
-4.87096e-05
0.040227
-7.44818e-05
0.0402297
-0.000102817
0.0402306
-0.000129873
0.0402316
-0.000157842
0.0402326
-0.000184888
0.0402334
-0.000215202
0.0402336
-0.000246912
0.0402331
-0.000280182
0.0402313
-0.00031305
0.0402278
-0.000351584
0.0402239
-0.000387676
0.040213
-0.000427139
0.040202
-0.000467639
0.0401839