/*--------------------------------*- C++ -*----------------------------------*\
  =========                 |
  \\      /  F ield         | OpenFOAM: The Open Source CFD Toolbox
   \\    /   O peration     | Website:  https://openfoam.org
    \\  /    A nd           | Version:  12
     \\/     M anipulation  |
\*---------------------------------------------------------------------------*/
FoamFile
{
    format      ascii;
    class       volVectorField;
    location    "420";
    object      U;
}
// * * * * * * * * * * * * * * * * * * * * * * * * * * * * * * * * * * * * * //

dimensions      [0 1 -1 0 0 0 0];

internalField   nonuniform List<vector> 
16227
(
(2 -4.09295e-06 -1.24557e-22)
(2 -1.22075e-05 1.24939e-22)
(2 -2.0153e-05 -1.24941e-22)
(2 -2.78444e-05 -1.25253e-22)
(2 -3.51697e-05 1.25255e-22)
(2 -4.20138e-05 1.25728e-22)
(2 -4.82623e-05 3.19384e-25)
(2 -5.37891e-05 -2.52388e-22)
(2 -5.846e-05 3.79878e-22)
(2 -6.21313e-05 -2.53501e-22)
(2 -6.46557e-05 0)
(2 -6.58868e-05 2.55676e-22)
(2 -6.56953e-05 0)
(2 -6.39437e-05 0)
(2 -6.04816e-05 0)
(2 -5.51884e-05 0)
(2 -4.79598e-05 0)
(2 -3.87147e-05 0)
(2 -2.7402e-05 0)
(2 -1.40089e-05 0)
(2 1.43054e-06 -2.61609e-22)
(2 1.88315e-05 1.16985e-25)
(2 3.80609e-05 2.61488e-22)
(2 5.89343e-05 0)
(2 8.12118e-05 -2.59635e-22)
(2 0.000104603 2.59633e-22)
(2 0.00012877 0)
(2 0.000153336 1.28138e-22)
(2 0.000177904 0)
(2 0.000202063 0)
(2 0.000225384 0)
(2 0.000247467 0)
(2 0.000267917 0)
(2 0.000286394 2.3844e-22)
(2 0.000302596 -3.65548e-24)
(2 0.000316288 -2.34779e-22)
(2 0.000327284 0)
(2 0.000335466 2.22896e-22)
(2 0.000340778 -4.15066e-24)
(2 0.00034322 -2.18745e-22)
(2 0.000342847 0)
(2 0.000339754 0)
(2 0.000334076 0)
(2 0.000325975 0)
(2 0.00031563 0)
(2 0.000303235 0)
(2 0.000288987 0)
(2 0.000273096 0)
(2 0.000255745 0)
(2 0.000237105 0)
(2 0.000217361 0)
(2 0.00019667 0)
(2 0.000175206 0)
(2 0.000153068 0)
(2 0.000130371 -8.34045e-23)
(2 0.000107215 8.34072e-23)
(2 8.37157e-05 0)
(2 5.99761e-05 0)
(2 3.60712e-05 0)
(2 1.2048e-05 8.13858e-23)
(2.00002 -1.61289e-05 1.08623e-25)
(2.00002 -4.8103e-05 0)
(2.00002 -7.94485e-05 0)
(2.00002 -0.00010981 0)
(2.00002 -0.000138746 -2.11842e-22)
(2.00002 -0.000165833 0)
(2.00001 -0.000190621 0)
(2.00001 -0.00021263 -6.40555e-22)
(2.00001 -0.000231347 4.27287e-22)
(2.00001 -0.000246248 -8.60035e-22)
(2 -0.000256773 3.44712e-21)
(2 -0.000262324 -2.15976e-21)
(2 -0.000262429 1.08322e-21)
(1.99999 -0.000256593 0)
(1.99999 -0.000244245 0)
(1.99999 -0.000224938 0)
(1.99998 -0.000198272 0)
(1.99998 -0.000163947 0)
(1.99997 -0.000121766 0)
(1.99997 -7.16737e-05 0)
(1.99996 -1.37931e-05 0)
(1.99996 5.15527e-05 0)
(1.99995 0.00012387 0)
(1.99995 0.000202479 0)
(1.99995 0.000286481 0)
(1.99994 0.000374788 -4.37376e-22)
(1.99994 0.000466138 4.37354e-22)
(1.99994 0.000559121 -2.16641e-22)
(1.99994 0.00065222 0)
(1.99994 0.000743886 0)
(1.99995 0.000832501 0)
(1.99995 0.000916537 0)
(1.99995 0.000994533 0)
(1.99996 0.00106518 0)
(1.99996 0.00112734 0)
(1.99997 0.00118008 -3.90579e-22)
(1.99998 0.00122271 6.75749e-24)
(1.99998 0.00125474 6.93924e-24)
(1.99999 0.00127595 7.06011e-24)
(2 0.00128633 3.69798e-22)
(2 0.00128607 3.55557e-22)
(2.00001 0.0012755 -3.55558e-22)
(2.00002 0.00125512 0)
(2.00002 0.00122555 0)
(2.00003 0.00118744 0)
(2.00003 0.0011415 0)
(2.00004 0.00108848 0)
(2.00004 0.00102914 0)
(2.00004 0.000964197 0)
(2.00005 0.000894327 0)
(2.00005 0.000820196 2.95376e-22)
(2.00005 0.000742392 -5.88257e-22)
(2.00005 0.000661549 -5.75267e-22)
(2.00005 0.000578135 5.7532e-22)
(2.00005 0.00049251 -5.63448e-22)
(2.00006 0.000405122 8.42886e-22)
(2.00006 0.000316399 -2.79551e-22)
(2.00006 0.000226691 1.38295e-22)
(2.00006 0.00013632 -1.38301e-22)
(2.00006 4.55031e-05 -2.9405e-25)
(2.00006 -3.05119e-05 2.10209e-22)
(2.00006 -9.10384e-05 0)
(2.00006 -0.000150473 0)
(2.00006 -0.000208177 0)
(2.00006 -0.000263379 2.11834e-22)
(2.00005 -0.000315324 -4.24919e-22)
(2.00005 -0.000363226 -1.11598e-24)
(2.00004 -0.000406229 6.39184e-22)
(2.00003 -0.000443418 2.13841e-22)
(2.00003 -0.000473871 8.60011e-22)
(2.00002 -0.000496616 -8.58513e-22)
(2.00001 -0.0005105 -1.72717e-21)
(2 -0.000514676 2.16942e-22)
(1.99998 -0.000508287 0)
(1.99997 -0.000490263 2.18578e-22)
(1.99996 -0.000459784 0)
(1.99994 -0.000416104 0)
(1.99993 -0.000358647 0)
(1.99991 -0.000287012 -8.84974e-22)
(1.9999 -0.000201003 8.84915e-22)
(1.99988 -0.000100831 -4.4333e-22)
(1.99987 1.29624e-05 4.43308e-22)
(1.99985 0.000139553 0)
(1.99984 0.000277786 -4.41682e-22)
(1.99983 0.000426087 1.43819e-24)
(1.99982 0.00058254 4.40184e-22)
(1.99982 0.000744913 0)
(1.99982 0.000910682 0)
(1.99982 0.00107716 0)
(1.99982 0.00124154 0)
(1.99983 0.00140093 2.08662e-22)
(1.99984 0.0015525 -4.20426e-22)
(1.99985 0.00169366 0)
(1.99987 0.001822 0)
(1.99989 0.00193544 3.97487e-22)
(1.99991 0.00203232 -3.97456e-22)
(1.99993 0.00211131 0)
(1.99995 0.00217154 0)
(1.99997 0.00221257 0)
(1.99999 0.00223434 0)
(2.00001 0.00223714 0)
(2.00003 0.00222158 0)
(2.00005 0.00218854 -1.72219e-22)
(2.00007 0.00213908 0)
(2.00008 0.00207434 0)
(2.0001 0.0019956 0)
(2.00011 0.00190421 -1.56347e-22)
(2.00012 0.00180147 3.15244e-22)
(2.00013 0.00168867 0)
(2.00014 0.00156704 1.505e-22)
(2.00015 0.00143773 0)
(2.00015 0.00130186 2.92781e-22)
(2.00016 0.00116048 5.73727e-22)
(2.00017 0.00101441 1.3582e-22)
(2.00017 0.000864338 -5.67291e-22)
(2.00017 0.000711122 2.78648e-22)
(2.00017 0.000555488 -2.78753e-22)
(2.00018 0.000398022 0)
(2.00018 0.000239346 0)
(2.00018 7.9857e-05 -1.37116e-22)
(2.00014 -4.629e-05 0)
(2.00014 -0.000138151 0)
(2.00013 -0.000228487 -2.10718e-22)
(2.00013 -0.000316406 0)
(2.00012 -0.00040082 -2.11761e-22)
(2.00011 -0.000480677 2.11753e-22)
(2.0001 -0.000554853 0)
(2.00009 -0.000622141 -6.40705e-22)
(2.00008 -0.000681217 6.39884e-22)
(2.00006 -0.000730748 0)
(2.00004 -0.000769384 -8.62838e-22)
(2.00002 -0.000795371 -2.59334e-21)
(2 -0.000807434 -4.33797e-22)
(1.99997 -0.000804343 0)
(1.99994 -0.000784481 -2.18542e-22)
(1.99991 -0.000746599 0)
(1.99988 -0.000689535 0)
(1.99985 -0.000612403 1.76912e-21)
(1.99982 -0.000514532 -1.76919e-21)
(1.99978 -0.000395396 0)
(1.99975 -0.000255248 -4.44331e-22)
(1.99972 -9.49321e-05 -6.63789e-27)
(1.99969 8.45359e-05 4.12104e-25)
(1.99967 0.000281547 4.43917e-22)
(1.99965 0.000493886 0)
(1.99963 0.000718806 0)
(1.99962 0.000953091 0)
(1.99962 0.00119308 2.17076e-22)
(1.99962 0.00143481 -3.17796e-25)
(1.99963 0.00167422 2.131e-22)
(1.99964 0.00190698 -1.43367e-24)
(1.99966 0.00212893 0)
(1.99969 0.00233619 0)
(1.99972 0.00252522 0)
(1.99976 0.00269293 -3.98237e-22)
(1.9998 0.00283681 6.75936e-24)
(1.99984 0.00295489 7.01161e-24)
(1.99988 0.00304594 7.19865e-24)
(1.99993 0.00310922 7.46989e-22)
(1.99997 0.00314464 -3.698e-22)
(2.00002 0.00315263 0)
(2.00006 0.0031341 -1.75602e-22)
(2.0001 0.00309029 1.72156e-22)
(2.00013 0.00302271 0)
(2.00017 0.0029331 0)
(2.0002 0.0028233 0)
(2.00022 0.00269522 -1.58819e-22)
(2.00025 0.0025508 0)
(2.00027 0.00239185 0)
(2.00029 0.00222017 -3.00237e-22)
(2.00031 0.00203746 -5.86624e-22)
(2.00032 0.00184528 1.16493e-21)
(2.00033 0.00164524 -5.78535e-22)
(2.00034 0.00143827 -7.06887e-22)
(2.00035 0.00122561 5.64652e-22)
(2.00036 0.00100846 0)
(2.00036 0.000787839 0)
(2.00037 0.000564515 1.36962e-22)
(2.00037 0.000339462 0)
(2.00037 0.000113225 0)
(2.00025 -6.33639e-05 0)
(2.00025 -0.000189119 0)
(2.00024 -0.000312954 3.86132e-25)
(2.00023 -0.000433746 0)
(2.00022 -0.000550131 0)
(2.00021 -0.000660762 -4.23441e-22)
(2.00019 -0.00076419 -6.38199e-22)
(2.00017 -0.000858877 6.37063e-22)
(2.00014 -0.000943118 0)
(2.00012 -0.00101512 0)
(2.00008 -0.00107317 -8.6243e-22)
(2.00005 -0.00111491 5.18292e-21)
(2.00001 -0.00113855 -4.32836e-22)
(1.99996 -0.0011424 4.34708e-22)
(1.99991 -0.00112434 0)
(1.99986 -0.0010826 0)
(1.99981 -0.00101551 8.83348e-22)
(1.99975 -0.000921815 2.66193e-21)
(1.99969 -0.000800451 -1.32855e-21)
(1.99964 -0.000650448 0)
(1.99958 -0.000472053 0)
(1.99953 -0.000266401 0)
(1.99948 -3.45271e-05 0)
(1.99943 0.000221465 -4.44954e-22)
(1.99939 0.000498734 1.26928e-24)
(1.99937 0.000793678 1.82288e-24)
(1.99935 0.00110206 4.41695e-22)
(1.99934 0.001419 2.1959e-22)
(1.99934 0.00173923 -4.69917e-25)
(1.99935 0.00205724 -2.16137e-22)
(1.99938 0.00236716 6.37115e-22)
(1.99941 0.00266333 -4.23502e-22)
(1.99946 0.00294051 -4.1234e-22)
(1.99951 0.00319391 4.12276e-22)
(1.99957 0.00341929 3.99308e-22)
(1.99964 0.00361325 -3.99251e-22)
(1.99972 0.00377316 0)
(1.99979 0.00389732 0)
(1.99987 0.00398482 -3.6995e-22)
(1.99995 0.0040355 3.69925e-22)
(2.00002 0.00404999 3.5472e-22)
(2.00009 0.00402952 -1.79161e-22)
(2.00016 0.00397579 0)
(2.00022 0.00389081 0)
(2.00028 0.00377695 0)
(2.00033 0.00363666 0)
(2.00038 0.00347247 0)
(2.00042 0.00328695 0)
(2.00046 0.00308253 -1.51576e-22)
(2.00049 0.00286152 -7.40555e-22)
(2.00052 0.00262621 5.92545e-22)
(2.00055 0.00237867 5.74866e-22)
(2.00057 0.00212088 -8.59325e-22)
(2.00058 0.00185402 5.60902e-22)
(2.0006 0.0015799 -5.60942e-22)
(2.00061 0.00130002 0)
(2.00062 0.00101563 0)
(2.00062 0.00072772 -1.07471e-24)
(2.00063 0.00043758 0)
(2.00063 0.000145907 0)
(2.00039 -8.19653e-05 -2.08809e-22)
(2.00039 -0.000244623 0)
(2.00038 -0.000405013 6.01383e-26)
(2.00037 -0.000561811 2.10238e-22)
(2.00035 -0.000713406 0)
(2.00033 -0.000858176 4.15649e-25)
(2.0003 -0.000994368 -4.24403e-22)
(2.00027 -0.00112011 4.24317e-22)
(2.00023 -0.00123333 0)
(2.00019 -0.00133175 0)
(2.00014 -0.0014133 4.29815e-22)
(2.00009 -0.00147508 1.72692e-21)
(2.00003 -0.00151454 -8.67304e-22)
(1.99996 -0.00152951 4.35799e-22)
(1.99988 -0.00151744 0)
(1.99981 -0.00147589 -4.40637e-22)
(1.99972 -0.00140257 4.40821e-22)
(1.99963 -0.00129572 4.98395e-24)
(1.99955 -0.00115375 -1.99847e-21)
(1.99946 -0.000975153 -4.46355e-22)
(1.99937 -0.000760073 4.47291e-22)
(1.99928 -0.000509895 -3.68495e-25)
(1.9992 -0.000225526 4.47965e-22)
(1.99913 9.04222e-05 0)
(1.99907 0.000434486 0)
(1.99903 0.000802194 0)
(1.99899 0.0011882 0)
(1.99898 0.00158633 -2.19633e-22)
(1.99898 0.0019898 0)
(1.999 0.00239156 0)
(1.99903 0.00278404 6.42222e-22)
(1.99909 0.00315976 -4.2587e-22)
(1.99916 0.00351202 0)
(1.99924 0.0038346 0)
(1.99934 0.00412202 0)
(1.99944 0.00436989 0)
(1.99956 0.00457484 3.85803e-22)
(1.99967 0.0047347 -7.73405e-24)
(1.99979 0.00484839 -5.65095e-22)
(1.99991 0.00491583 0)
(2.00002 0.00493784 0)
(2.00013 0.00491608 3.46501e-22)
(2.00024 0.00485275 -5.17586e-22)
(2.00033 0.00475053 0)
(2.00042 0.00461243 0)
(2.0005 0.0044416 0)
(2.00058 0.00424126 0)
(2.00064 0.00401465 0)
(2.0007 0.0037648 4.50887e-22)
(2.00075 0.00349466 1.17466e-21)
(2.00079 0.00320706 -1.17637e-21)
(2.00083 0.00290472 5.70324e-22)
(2.00086 0.00258957 -2.86147e-22)
(2.00088 0.00226348 0)
(2.00091 0.00192872 1.37582e-22)
(2.00092 0.00158701 0)
(2.00094 0.00123975 0)
(2.00095 0.000888256 -1.35842e-22)
(2.00095 0.000534064 0)
(2.00095 0.000178019 1.33308e-22)
(2.00057 -0.000102304 6.04676e-25)
(2.00057 -0.000305291 0)
(2.00056 -0.000505717 0)
(2.00054 -0.0007021 -2.09529e-22)
(2.00052 -0.000892611 0)
(2.00049 -0.00107537 2.11007e-22)
(2.00045 -0.00124835 -2.11763e-22)
(2.00041 -0.00140934 4.23609e-22)
(2.00035 -0.00155596 0)
(2.00029 -0.00168541 -8.57158e-22)
(2.00023 -0.00179516 4.27435e-22)
(2.00015 -0.00188201 3.84244e-24)
(2.00006 -0.00194235 1.73753e-21)
(1.99996 -0.00197335 -8.72418e-22)
(1.99986 -0.0019721 -2.18566e-24)
(1.99975 -0.00193538 -2.23184e-22)
(1.99963 -0.00186028 4.43424e-21)
(1.9995 -0.00174421 -1.76782e-21)
(1.99937 -0.0015849 -2.89864e-21)
(1.99924 -0.0013803 4.0333e-21)
(1.99912 -0.00113022 4.50589e-22)
(1.99899 -0.000836241 -4.50277e-22)
(1.99888 -0.000498962 -1.53992e-25)
(1.99877 -0.00012151 4.50632e-22)
(1.99868 0.000292102 0)
(1.99861 0.000736424 0)
(1.99856 0.00120487 0)
(1.99853 0.00168984 0)
(1.99853 0.00218289 2.21191e-22)
(1.99856 0.00267525 0)
(1.99861 0.00315724 -6.46704e-22)
(1.99868 0.00361944 0)
(1.99878 0.00405339 4.16768e-22)
(1.9989 0.0044512 -4.16661e-22)
(1.99904 0.00480602 4.02498e-22)
(1.99919 0.00511239 -7.62488e-24)
(1.99935 0.00536611 -7.81518e-22)
(1.99952 0.00556455 3.8673e-22)
(1.99969 0.00570651 -1.83222e-22)
(1.99986 0.00579199 3.70278e-22)
(2.00002 0.00582224 1.78839e-22)
(2.00018 0.00579939 0)
(2.00033 0.00572631 1.71023e-22)
(2.00046 0.00560647 0)
(2.00059 0.00544357 0)
(2.00071 0.00524162 1.5901e-22)
(2.00081 0.00500458 -1.55527e-22)
(2.0009 0.00473641 0)
(2.00098 0.00444076 1.78444e-21)
(2.00105 0.00412129 1.14468e-21)
(2.00111 0.00378145 -2.3333e-21)
(2.00117 0.00342437 -5.6485e-22)
(2.00121 0.00305208 1.26145e-21)
(2.00125 0.00266733 -5.57209e-22)
(2.00127 0.00227256 -1.3755e-22)
(2.0013 0.00186968 0)
(2.00132 0.00146038 2.67809e-22)
(2.00133 0.00104624 -1.34158e-22)
(2.00134 0.000628977 0)
(2.00134 0.000209585 -1.59398e-24)
(2.0008 -0.00012454 2.08187e-22)
(2.00079 -0.000371619 0)
(2.00078 -0.00061592 0)
(2.00075 -0.000855824 2.08905e-22)
(2.00072 -0.00108934 -5.17657e-25)
(2.00068 -0.00131438 2.09897e-22)
(2.00064 -0.00152865 -2.10532e-22)
(2.00058 -0.00172963 -6.3594e-22)
(2.00051 -0.00191462 4.24026e-22)
(2.00043 -0.00208035 -8.55781e-22)
(2.00034 -0.00222367 -2.18637e-22)
(2.00023 -0.00234112 1.29107e-21)
(2.00012 -0.00242826 -3.46781e-21)
(1.99999 -0.00248105 -1.74782e-21)
(1.99985 -0.00249625 1.74834e-21)
(1.99969 -0.00246989 -2.20314e-22)
(1.99953 -0.0023982 5.33489e-21)
(1.99936 -0.00227756 -8.85039e-22)
(1.99918 -0.00210472 -8.93583e-22)
(1.999 -0.00187709 -2.69001e-21)
(1.99882 -0.00159387 4.55273e-22)
(1.99865 -0.00125671 0)
(1.99849 -0.000865812 0)
(1.99834 -0.000424677 -4.53697e-22)
(1.99821 6.21281e-05 7.54258e-25)
(1.99811 0.000588083 4.53133e-22)
(1.99804 0.00114531 0)
(1.998 0.0017245 4.46361e-22)
(1.99799 0.00231532 -6.67381e-22)
(1.99802 0.00290696 0)
(1.99809 0.00348736 2.11715e-22)
(1.99819 0.00404475 -8.5896e-22)
(1.99832 0.0045686 6.60108e-24)
(1.99849 0.00504916 8.3211e-22)
(1.99868 0.0054779 -7.66863e-24)
(1.99888 0.00584813 -4.04542e-22)
(1.9991 0.00615486 0)
(1.99933 0.00639498 3.79329e-22)
(1.99956 0.00656722 -8.6839e-24)
(1.99979 0.00667186 -3.70519e-22)
(2.00002 0.00671059 -3.57397e-22)
(2.00023 0.00668633 0)
(2.00043 0.00660272 0)
(2.00062 0.00646414 -1.65665e-22)
(2.00079 0.00627526 0)
(2.00094 0.00604094 -3.1677e-22)
(2.00108 0.005766 1.55462e-22)
(2.00121 0.00545518 -3.01646e-22)
(2.00131 0.00511287 -1.77747e-21)
(2.00141 0.00474337 -1.15368e-21)
(2.00149 0.00435111 5.84802e-22)
(2.00156 0.00393886 -9.01477e-24)
(2.00162 0.0035095 -8.35452e-22)
(2.00166 0.0030664 2.73405e-22)
(2.0017 0.00261199 0)
(2.00174 0.00214852 0)
(2.00176 0.0016779 -1.83793e-24)
(2.00178 0.00120191 0)
(2.00179 0.000722464 0)
(2.00179 0.000240644 -1.31674e-22)
(2.00107 -0.000148815 0)
(2.00106 -0.000444024 0)
(2.00104 -0.000736305 2.07631e-22)
(2.00101 -0.00102399 -2.08783e-22)
(2.00098 -0.00130496 0)
(2.00093 -0.00157694 -4.18895e-22)
(2.00087 -0.00183744 2.09693e-22)
(2.00079 -0.00208364 2.10566e-22)
(2.00071 -0.00231251 0)
(2.0006 -0.0025204 0)
(2.00049 -0.00270347 -6.44529e-22)
(2.00035 -0.00285778 4.27958e-22)
(2.0002 -0.00297848 1.73802e-21)
(2.00003 -0.00305984 5.2303e-21)
(1.99985 -0.00309795 0)
(1.99965 -0.00308841 -8.84346e-22)
(1.99944 -0.00302609 -3.55454e-21)
(1.99921 -0.0029063 -8.96179e-22)
(1.99897 -0.00272456 -1.79911e-21)
(1.99873 -0.00247751 4.48282e-22)
(1.9985 -0.0021633 -9.06993e-22)
(1.99826 -0.00178363 -1.34571e-24)
(1.99804 -0.00133816 -8.17596e-25)
(1.99784 -0.000830556 4.57556e-22)
(1.99767 -0.00026601 0)
(1.99753 0.000348017 0)
(1.99742 0.00100204 0)
(1.99736 0.00168474 2.27855e-22)
(1.99735 0.00238366 -2.26048e-22)
(1.99738 0.00308556 0)
(1.99747 0.00377554 4.32035e-22)
(1.9976 0.00443892 -4.36808e-22)
(1.99778 0.00506284 0)
(1.99799 0.00563521 0)
(1.99824 0.00614568 6.13824e-22)
(1.99851 0.00658609 -4.07113e-22)
(1.99881 0.00695056 -3.89448e-22)
(1.99911 0.00723555 7.6953e-22)
(1.99941 0.0074399 -3.8008e-22)
(1.99971 0.00756432 0)
(2.00001 0.00761123 5.3091e-22)
(2.00029 0.00758445 -3.52311e-22)
(2.00055 0.00748874 -1.69039e-22)
(2.00079 0.00732953 3.30236e-22)
(2.00101 0.00711263 0)
(2.00122 0.00684389 1.57766e-22)
(2.0014 0.00652915 -3.0535e-22)
(2.00155 0.00617398 3.015e-22)
(2.00169 0.00578363 -1.14418e-21)
(2.00181 0.00536314 6.0927e-22)
(2.00192 0.00491747 2.85986e-22)
(2.00201 0.00444938 1.37711e-22)
(2.00208 0.00396284 -1.37736e-22)
(2.00214 0.00346131 -1.3572e-22)
(2.00219 0.00294748 2.64556e-22)
(2.00223 0.00242385 -1.22493e-24)
(2.00226 0.00189251 -2.63086e-22)
(2.00229 0.00135542 1.28856e-22)
(2.0023 0.000814588 0)
(2.0023 0.000271204 0)
(2.00139 -0.000175215 0)
(2.00138 -0.000522766 0)
(2.00136 -0.000867355 -4.14227e-22)
(2.00132 -0.0012073 0)
(2.00128 -0.00154043 0)
(2.00122 -0.00186436 8.50436e-25)
(2.00114 -0.00217641 0)
(2.00105 -0.00247352 -2.10759e-22)
(2.00095 -0.00275234 -2.11977e-22)
(2.00082 -0.00300883 2.11802e-22)
(2.00068 -0.00323856 -8.57141e-22)
(2.00051 -0.00343685 8.5711e-22)
(2.00032 -0.00359849 0)
(2.00011 -0.00371627 -5.21721e-21)
(1.99988 -0.00378503 -8.65389e-22)
(1.99962 -0.00379979 9.02335e-22)
(1.99935 -0.00375396 -5.34126e-21)
(1.99906 -0.00364143 1.79647e-21)
(1.99875 -0.0034564 -9.00385e-22)
(1.99844 -0.00319435 0)
(1.99813 -0.00285188 -9.17688e-22)
(1.99783 -0.00243061 0)
(1.99754 -0.00192942 -4.61703e-22)
(1.99727 -0.00135205 4.6189e-22)
(1.99704 -0.000704104 -4.62546e-22)
(1.99684 5.79769e-06 2.29988e-22)
(1.9967 0.000766509 0)
(1.99661 0.00156442 -2.27976e-22)
(1.99659 0.00238428 6.84493e-22)
(1.99663 0.00321006 2.2668e-22)
(1.99673 0.00402338 -4.47694e-22)
(1.9969 0.00480618 -2.14195e-22)
(1.99713 0.00554256 4.3512e-22)
(1.99741 0.0062177 0)
(1.99773 0.00681907 2.03702e-22)
(1.99808 0.00733683 -9.25485e-24)
(1.99846 0.0077642 -9.59132e-24)
(1.99884 0.00809733 -3.90951e-22)
(1.99924 0.00833524 3.71151e-22)
(1.99962 0.00847942 -5.54063e-22)
(2 0.00853332 1.77916e-22)
(2.00035 0.00850199 0)
(2.00069 0.00839154 1.6898e-22)
(2.00099 0.00820876 -1.64569e-22)
(2.00127 0.00796081 0)
(2.00153 0.00765475 0)
(2.00175 0.00729746 3.0521e-22)
(2.00195 0.00689556 -5.38606e-24)
(2.00212 0.00645507 -2.55647e-23)
(2.00227 0.00598236 1.13835e-21)
(2.0024 0.00548166 2.80287e-22)
(2.00251 0.00495694 1.35491e-22)
(2.0026 0.0044127 1.33498e-22)
(2.00268 0.00385252 -1.80489e-24)
(2.00274 0.00327936 -1.34093e-22)
(2.00279 0.00269591 0)
(2.00283 0.00210437 0)
(2.00285 0.00150683 -2.55251e-22)
(2.00287 0.000905414 0)
(2.00288 0.000301308 0)
(2.00177 -0.000203778 0)
(2.00175 -0.000607992 0)
(2.00173 -0.00100931 2.98075e-25)
(2.00169 -0.00140616 2.0625e-22)
(2.00163 -0.00179634 0)
(2.00156 -0.00217744 2.08092e-22)
(2.00148 -0.00254668 2.08931e-22)
(2.00137 -0.00290079 1.03862e-24)
(2.00124 -0.00323613 9.08104e-25)
(2.00109 -0.00354832 -2.12355e-22)
(2.00092 -0.00383232 2.12339e-22)
(2.00071 -0.00408256 2.14261e-22)
(2.00048 -0.00429351 -4.31874e-22)
(2.00022 -0.00445665 -3.48297e-21)
(1.99994 -0.00456492 -8.85713e-22)
(1.99962 -0.00461284 3.53804e-21)
(1.99928 -0.00459221 2.68174e-21)
(1.99891 -0.00449465 -1.80135e-21)
(1.99853 -0.00431317 1.81548e-21)
(1.99813 -0.00404167 2.75838e-21)
(1.99773 -0.00367443 4.5558e-22)
(1.99734 -0.0032128 -3.68343e-24)
(1.99696 -0.00265471 -4.6664e-22)
(1.99662 -0.00200372 9.34828e-22)
(1.99631 -0.00126569 -4.68201e-22)
(1.99605 -0.000450405 2.3279e-22)
(1.99586 0.000429159 0)
(1.99574 0.00135658 2.34669e-22)
(1.9957 0.00231329 2.36903e-22)
(1.99574 0.00327987 -2.29275e-22)
(1.99587 0.00423355 2.2127e-22)
(1.99608 0.00515212 2.20938e-22)
(1.99636 0.00601605 2.12683e-22)
(1.99672 0.00680709 -4.32396e-22)
(1.99712 0.00751012 0)
(1.99757 0.0081134 -4.03537e-22)
(1.99805 0.00860916 1.03854e-23)
(1.99854 0.00899337 3.9276e-22)
(1.99903 0.0092657 -3.71403e-22)
(1.99952 0.00942861 1.06171e-23)
(1.99999 0.00948711 5.30785e-24)
(2.00043 0.00944789 -5.12122e-22)
(2.00084 0.0093188 3.40005e-22)
(2.00122 0.00910831 -1.61998e-22)
(2.00157 0.00882513 -1.57331e-22)
(2.00188 0.00847778 -6.07613e-22)
(2.00215 0.00807434 1.79191e-21)
(2.0024 0.00762251 2.42581e-24)
(2.00261 0.00712927 2.31093e-21)
(2.00279 0.00660219 8.29917e-22)
(2.00295 0.0060447 -1.40944e-22)
(2.00308 0.00546216 -2.7097e-22)
(2.00319 0.00485951 -1.31015e-22)
(2.00328 0.0042403 1.31046e-22)
(2.00335 0.00360778 -1.29622e-22)
(2.00341 0.00296471 -1.26451e-22)
(2.00345 0.00231346 1.26486e-22)
(2.00348 0.00165612 1.54869e-24)
(2.0035 0.000994894 1.24873e-22)
(2.00351 0.000330945 0)
(2.00221 -0.000234491 0)
(2.00219 -0.000699669 0)
(2.00216 -0.00116216 0)
(2.00211 -0.00162057 -2.05561e-22)
(2.00205 -0.00207278 2.05517e-22)
(2.00197 -0.00251646 -2.06952e-22)
(2.00187 -0.00294876 2.06913e-22)
(2.00175 -0.00336632 0)
(2.0016 -0.00376521 0)
(2.00142 -0.00414073 2.11579e-22)
(2.00121 -0.00448744 -4.24675e-22)
(2.00097 -0.00479865 -1.04986e-24)
(2.0007 -0.00506824 8.67188e-22)
(2.00039 -0.00528726 2.61524e-21)
(2.00004 -0.00544561 1.76356e-21)
(1.99965 -0.00553663 -1.76664e-21)
(1.99923 -0.00555125 -1.79666e-21)
(1.99878 -0.00547805 1.12639e-21)
(1.9983 -0.00530859 -9.15519e-22)
(1.99781 -0.00503462 2.72563e-23)
(1.99731 -0.00464743 -1.86411e-21)
(1.99681 -0.00414718 3.74236e-21)
(1.99633 -0.00353131 -4.69784e-22)
(1.99588 -0.00280243 0)
(1.99548 -0.0019665 0)
(1.99515 -0.00103441 0)
(1.99489 -2.14148e-05 0)
(1.99473 0.00105316 -2.34783e-22)
(1.99466 0.00216642 2.42039e-22)
(1.99471 0.00329463 1.03594e-24)
(1.99486 0.00440966 0)
(1.99512 0.00548417 2.1973e-22)
(1.99547 0.00649394 -2.27182e-22)
(1.99591 0.00741664 2.18294e-22)
(1.99642 0.00823384 4.17796e-22)
(1.99698 0.00893173 -6.24601e-22)
(1.99758 0.00950161 -3.95018e-22)
(1.99819 0.00993943 1.99839e-22)
(1.9988 0.0102459 0)
(1.9994 0.0104252 1.82883e-22)
(1.99998 0.0104843 5.62908e-25)
(2.00052 0.0104322 9.52718e-25)
(2.00103 0.0102789 -1.65557e-22)
(2.00149 0.0100349 -3.16008e-22)
(2.00191 0.00971102 4.74823e-22)
(2.00228 0.00931718 -1.19836e-21)
(2.00261 0.00886294 1.19815e-21)
(2.0029 0.0083575 -2.31938e-21)
(2.00315 0.00780827 2.5e-21)
(2.00336 0.00722372 -8.3063e-22)
(2.00354 0.00660725 0)
(2.0037 0.00596548 1.30384e-22)
(2.00383 0.00530341 -1.30414e-22)
(2.00393 0.00462465 0)
(2.00402 0.00393264 0)
(2.00408 0.00323014 0)
(2.00414 0.00251969 0)
(2.00417 0.00180321 0)
(2.0042 0.00108299 0)
(2.0042 0.000360088 0)
(2.0027 -0.000267282 0)
(2.00268 -0.000797607 0)
(2.00265 -0.0013256 0)
(2.0026 -0.00185019 0)
(2.00253 -0.00236939 0)
(2.00244 -0.00288108 2.05701e-22)
(2.00233 -0.00338245 -4.12317e-22)
(2.00219 -0.00387012 2.0664e-22)
(2.00202 -0.00434002 -2.09147e-22)
(2.00181 -0.00478711 -1.53063e-24)
(2.00158 -0.00520556 2.10631e-22)
(2.0013 -0.00558782 0)
(2.00097 -0.00592656 -4.34031e-22)
(2.00061 -0.00621262 -1.31616e-21)
(2.00019 -0.00643358 8.78792e-21)
(1.99973 -0.00657991 -3.53351e-21)
(1.99922 -0.00664164 1.79507e-21)
(1.99867 -0.00660452 9.88882e-25)
(1.99809 -0.00645762 1.1452e-21)
(1.99748 -0.00619022 -1.83359e-21)
(1.99685 -0.00578966 -3.76391e-21)
(1.99623 -0.0052536 1.10423e-23)
(1.99562 -0.00457959 0)
(1.99505 -0.00376816 -4.81385e-22)
(1.99454 -0.00282523 -1.43175e-24)
(1.99411 -0.00176287 4.83518e-22)
(1.99377 -0.000598619 0)
(1.99355 0.00064455 0)
(1.99346 0.00193866 -2.36276e-22)
(1.9935 0.00325431 -4.72479e-22)
(1.99368 0.00455676 4.6366e-22)
(1.99399 0.00581203 -2.35634e-22)
(1.99443 0.00698996 0)
(1.99498 0.00806312 -6.5256e-22)
(1.99561 0.00900915 2.18268e-22)
(1.9963 0.00981169 4.07901e-22)
(1.99704 0.0104612 -4.097e-22)
(1.9978 0.0109542 1.94936e-22)
(1.99855 0.0112931 1.82558e-22)
(1.99928 0.0114843 -5.53869e-22)
(1.99998 0.0115379 7.39457e-25)
(2.00064 0.0114656 1.17704e-24)
(2.00124 0.0112805 1.6547e-22)
(2.00179 0.0109956 1.88944e-24)
(2.00229 0.0106237 0)
(2.00273 0.0101768 7.2343e-24)
(2.00311 0.00966591 1.1783e-21)
(2.00345 0.00910232 -2.23514e-21)
(2.00374 0.00849289 8.97585e-23)
(2.00399 0.0078474 -1.3586e-22)
(2.0042 0.00716962 0)
(2.00438 0.00646694 1.27343e-22)
(2.00453 0.00574426 -1.27375e-22)
(2.00465 0.00500533 0)
(2.00474 0.00425366 0)
(2.00482 0.00349194 0)
(2.00488 0.00272275 1.19496e-22)
(2.00492 0.00194787 -1.1953e-22)
(2.00495 0.00116958 0)
(2.00495 0.000388694 0)
(2.00327 -0.000302013 0)
(2.00324 -0.000901375 0)
(2.00321 -0.00149896 0)
(2.00316 -0.00209414 0)
(2.00308 -0.00268516 0)
(2.00298 -0.00327025 -2.04266e-22)
(2.00286 -0.00384675 4.09492e-22)
(2.0027 -0.00441139 1.26819e-24)
(2.00251 -0.00496007 1.45627e-24)
(2.00229 -0.00548744 2.11191e-22)
(2.00201 -0.00598741 -6.30376e-22)
(2.0017 -0.00645175 -2.03888e-24)
(2.00132 -0.00687176 2.13347e-22)
(2.0009 -0.00723745 -4.38156e-22)
(2.00041 -0.00753537 -2.62503e-21)
(1.99986 -0.00775193 -2.65783e-21)
(1.99926 -0.00787483 -9.17465e-24)
(1.9986 -0.00788801 2.1754e-22)
(1.99789 -0.00777668 6.87042e-22)
(1.99715 -0.00752692 -2.80213e-21)
(1.99638 -0.00712191 -2.90062e-21)
(1.9956 -0.00655494 -9.51278e-22)
(1.99484 -0.00582339 0)
(1.99412 -0.00492468 -4.89511e-22)
(1.99347 -0.0038645 -2.23503e-24)
(1.99292 -0.00265591 4.92588e-22)
(1.99248 -0.00131906 2.49888e-22)
(1.99218 0.000118954 0)
(1.99205 0.00162385 4.95899e-22)
(1.99209 0.00315929 -7.30379e-22)
(1.9923 0.00468153 2.40504e-22)
(1.99268 0.00614816 -4.64049e-22)
(1.99322 0.00752172 6.84958e-22)
(1.99389 0.00876797 -1.18318e-23)
(1.99467 0.00985973 -2.24705e-22)
(1.99553 0.0107779 2.09207e-22)
(1.99644 0.0115121 0)
(1.99736 0.0120602 0)
(1.99828 0.0124272 -1.82452e-22)
(1.99916 0.0126232 3.71676e-22)
(2 0.0126623 1.75917e-22)
(2.00078 0.01256 1.45523e-24)
(2.0015 0.0123329 -3.23904e-22)
(2.00215 0.0119972 -4.60056e-22)
(2.00273 0.0115682 1.8224e-21)
(2.00324 0.0110602 -1.18575e-21)
(2.00368 0.010486 5.60959e-22)
(2.00407 0.00985833 1.67318e-21)
(2.0044 0.00918358 -1.90904e-21)
(2.00469 0.00847343 -2.65392e-22)
(2.00492 0.00773163 0)
(2.00512 0.00696611 -1.23982e-22)
(2.00529 0.0061815 1.24022e-22)
(2.00542 0.00538172 0)
(2.00553 0.00457023 1.18299e-22)
(2.00561 0.00374956 -1.18332e-22)
(2.00568 0.00292226 0)
(2.00573 0.00208983 0)
(2.00576 0.00125444 0)
(2.00576 0.000416707 0)
(2.00391 -0.000338487 0)
(2.00388 -0.00101041 0)
(2.00384 -0.00168132 0)
(2.00379 -0.00235114 0)
(2.00371 -0.00301855 0)
(2.0036 -0.00368221 0)
(2.00347 -0.00433978 -2.03711e-22)
(2.0033 -0.00498825 -1.33871e-24)
(2.00309 -0.00562361 -2.08048e-22)
(2.00284 -0.00624047 2.04692e-22)
(2.00254 -0.00683242 -2.12156e-22)
(2.00218 -0.00739076 4.20278e-22)
(2.00176 -0.00790551 -4.29571e-22)
(2.00127 -0.00836542 -5.34815e-24)
(2.00071 -0.00875584 3.93541e-21)
(2.00007 -0.00905979 -8.93587e-22)
(1.99936 -0.00926168 -1.81335e-21)
(1.99858 -0.00934295 -2.40637e-22)
(1.99773 -0.00928382 -1.37569e-23)
(1.99683 -0.00906619 2.82746e-21)
(1.99589 -0.00866853 -8.50764e-23)
(1.99493 -0.00807807 -4.87593e-22)
(1.99399 -0.00729104 7.36008e-22)
(1.99309 -0.00630074 2.50847e-22)
(1.99227 -0.00511206 0)
(1.99156 -0.00373866 2.55228e-22)
(1.99099 -0.00220343 -2.49942e-22)
(1.9906 -0.000538509 5.03678e-22)
(1.99041 0.00121448 -7.50222e-22)
(1.99044 0.00300992 7.39104e-22)
(1.99068 0.00479251 -2.46565e-22)
(1.99115 0.00650891 4.7442e-22)
(1.99181 0.00811185 -2.42101e-22)
(1.99264 0.0095585 6.78179e-22)
(1.9936 0.0108156 -1.43285e-23)
(1.99466 0.0118608 -6.47131e-22)
(1.99576 0.0126837 -4.02197e-22)
(1.99689 0.0132842 4.01848e-22)
(1.99799 0.0136718 0)
(1.99905 0.0138617 1.81889e-22)
(2.00005 0.0138733 -1.73599e-22)
(2.00097 0.0137275 -1.64583e-22)
(2.00181 0.0134451 4.5024e-24)
(2.00256 0.0130462 0)
(2.00323 0.012549 1.15631e-21)
(2.00381 0.0119707 -2.27528e-21)
(2.00432 0.0113253 -8.24865e-22)
(2.00476 0.0106259 -2.73953e-22)
(2.00513 0.0098802 1.29119e-22)
(2.00545 0.00910137 -8.82603e-22)
(2.00571 0.00829241 3.74581e-22)
(2.00593 0.00746194 -1.22905e-22)
(2.00611 0.0066141 0)
(2.00626 0.00575285 0)
(2.00638 0.0048815 0)
(2.00647 0.00400223 -1.13284e-22)
(2.00654 0.00311755 1.01638e-24)
(2.00659 0.00222861 1.12351e-22)
(2.00662 0.0013373 0)
(2.00662 0.000444044 0)
(2.00462 -0.000376393 -1.97475e-22)
(2.00459 -0.00112383 1.98058e-22)
(2.00455 -0.00187131 0)
(2.00449 -0.00261931 -1.99191e-22)
(2.00441 -0.0033672 1.99119e-22)
(2.0043 -0.00411423 0)
(2.00417 -0.00485856 2.01933e-22)
(2.00399 -0.00559762 1.40047e-24)
(2.00377 -0.00632769 -4.08049e-22)
(2.0035 -0.00704346 -2.08529e-22)
(2.00317 -0.00773846 2.04484e-22)
(2.00277 -0.00840364 2.08691e-22)
(2.0023 -0.00902797 0)
(2.00175 -0.00959869 0)
(2.00111 -0.0100999 -4.36215e-22)
(2.00037 -0.010511 -1.33303e-21)
(1.99955 -0.0108132 1.79379e-21)
(1.99862 -0.0109843 -1.38278e-21)
(1.99762 -0.0109985 -1.61452e-23)
(1.99654 -0.0108323 1.91558e-21)
(1.9954 -0.0104582 6.72019e-21)
(1.99423 -0.00985526 -9.89947e-22)
(1.99307 -0.00901686 7.45284e-22)
(1.99194 -0.00793163 2.52461e-22)
(1.99091 -0.00660242 0)
(1.99 -0.00504273 -2.55235e-22)
(1.98927 -0.00327827 0)
(1.98876 -0.00134693 2.59004e-22)
(1.98849 0.000700446 -2.02345e-24)
(1.9885 0.00280664 -1.02793e-21)
(1.98879 0.00490094 1.52089e-21)
(1.98935 0.00691546 -1.14071e-23)
(1.99017 0.00878975 -4.85903e-22)
(1.99119 0.01047 4.99207e-24)
(1.99237 0.0119151 -2.13721e-22)
(1.99367 0.013099 6.53624e-22)
(1.99502 0.0140121 0)
(1.99638 0.0146584 0)
(1.99771 0.0150539 -3.70044e-22)
(1.99897 0.0152215 1.61144e-23)
(2.00014 0.0151879 6.98803e-22)
(2.00121 0.0149805 4.46009e-24)
(2.00218 0.0146258 5.41473e-24)
(2.00304 0.0141481 1.20054e-21)
(2.0038 0.0135691 -6.96067e-21)
(2.00446 0.0129095 2.82512e-21)
(2.00503 0.0121829 5.46309e-22)
(2.00552 0.011404 0)
(2.00593 0.0105819 0)
(2.00628 0.00972975 5.01495e-22)
(2.00656 0.00885043 1.1886e-22)
(2.0068 0.00795277 -1.18887e-22)
(2.007 0.00704047 0)
(2.00715 0.00611727 -1.12096e-22)
(2.00728 0.00518616 1.1213e-22)
(2.00738 0.00424898 0)
(2.00745 0.00330786 0)
(2.00751 0.00236362 1.07595e-22)
(2.00754 0.0014178 -1.07639e-22)
(2.00754 0.000470591 0)
(2.00541 -0.000415392 0)
(2.00537 -0.00124061 0)
(2.00534 -0.0020671 1.96601e-22)
(2.00528 -0.00289621 -1.96519e-22)
(2.0052 -0.00372808 0)
(2.00509 -0.00456268 0)
(2.00495 -0.00539902 -1.99916e-22)
(2.00477 -0.00623509 -1.44917e-24)
(2.00454 -0.00706771 4.04146e-22)
(2.00426 -0.00789198 -2.02859e-22)
(2.0039 -0.00870148 -4.1405e-22)
(2.00347 -0.0094871 2.02167e-22)
(2.00296 -0.0102371 4.19032e-22)
(2.00234 -0.0109373 -4.31192e-22)
(2.00162 -0.0115703 -2.61172e-21)
(2.00079 -0.0121122 4.38188e-22)
(1.99984 -0.01254 -9.09218e-22)