/*--------------------------------*- C++ -*----------------------------------*\
  =========                 |
  \\      /  F ield         | OpenFOAM: The Open Source CFD Toolbox
   \\    /   O peration     | Website:  https://openfoam.org
    \\  /    A nd           | Version:  12
     \\/     M anipulation  |
\*---------------------------------------------------------------------------*/
FoamFile
{
    format      ascii;
    class       volScalarField;
    location    "500";
    object      k;
}
// * * * * * * * * * * * * * * * * * * * * * * * * * * * * * * * * * * * * * //

dimensions      [0 2 -2 0 0 0 0];

internalField   nonuniform List<scalar> 
16227
(
0.00914646
0.00914648
0.00914647
0.00914651
0.0091465
0.00914654
0.00914653
0.00914651
0.00914651
0.00914653
0.00914657
0.00914659
0.00914665
0.00914665
0.00914665
0.00914665
0.00914665
0.00914665
0.00914665
0.00914665
0.00914665
0.00914665
0.00914665
0.00914665
0.00914665
0.00914665
0.00914665
0.00914666
0.00914667
0.00914664
0.00914665
0.00914665
0.00914665
0.00914665
0.00914665
0.00914665
0.00914665
0.00914665
0.00914665
0.00914665
0.00914665
0.00914665
0.00914665
0.00914665
0.00914665
0.00914665
0.00914665
0.00914663
0.00914662
0.00914662
0.00914662
0.00914661
0.00914654
0.00914654
0.00914649
0.00914649
0.00914651
0.00914649
0.00914647
0.00914646
0.00848122
0.00848124
0.00848124
0.00848127
0.00848128
0.00848131
0.0084813
0.00848127
0.00848128
0.0084813
0.00848135
0.00848137
0.00848151
0.00848157
0.00848158
0.00848158
0.00848158
0.00848158
0.00848158
0.00848158
0.00848159
0.00848161
0.00848161
0.00848161
0.00848161
0.00848161
0.00848161
0.0084816
0.00848158
0.00848153
0.00848158
0.0084816
0.00848161
0.00848161
0.0084816
0.00848159
0.00848158
0.00848158
0.00848158
0.00848158
0.00848158
0.00848158
0.00848158
0.00848157
0.00848157
0.00848155
0.00848155
0.00848156
0.00848156
0.00848154
0.00848151
0.00848146
0.00848134
0.00848133
0.00848129
0.00848127
0.00848131
0.00848123
0.00848124
0.00848122
0.00790075
0.00790077
0.00790078
0.00790079
0.00790079
0.00790088
0.00790083
0.00790082
0.00790082
0.00790083
0.00790088
0.00790089
0.00790115
0.00790121
0.00790122
0.00790123
0.00790122
0.00790122
0.00790124
0.00790119
0.00790122
0.00790123
0.00790123
0.00790122
0.00790122
0.00790122
0.00790122
0.00790123
0.00790121
0.00790114
0.0079012
0.00790122
0.00790122
0.00790122
0.00790123
0.00790123
0.00790123
0.00790122
0.00790121
0.00790122
0.00790122
0.00790122
0.00790121
0.0079012
0.0079012
0.0079012
0.00790119
0.0079012
0.00790118
0.00790116
0.00790112
0.00790092
0.00790085
0.00790083
0.00790082
0.00790081
0.00790084
0.00790075
0.00790076
0.00790074
0.00739025
0.00739026
0.00739027
0.00739028
0.00739028
0.00739035
0.00739035
0.00739031
0.00739032
0.00739031
0.00739036
0.00739041
0.00739067
0.00739075
0.00739076
0.00739077
0.00739078
0.00739079
0.00739072
0.00739059
0.00739071
0.00739074
0.00739074
0.00739074
0.00739075
0.00739074
0.00739074
0.00739073
0.00739072
0.00739063
0.00739071
0.00739073
0.00739073
0.00739074
0.00739074
0.00739075
0.00739076
0.00739076
0.00739077
0.00739076
0.00739077
0.00739077
0.00739076
0.00739077
0.00739076
0.00739075
0.00739076
0.00739075
0.00739076
0.00739072
0.0073906
0.00739041
0.00739031
0.00739033
0.00739032
0.00739034
0.00739031
0.00739024
0.00739024
0.00739022
0.0069381
0.00693812
0.00693812
0.00693814
0.00693814
0.00693819
0.00693822
0.00693815
0.00693816
0.00693816
0.00693819
0.00693825
0.00693849
0.00693862
0.00693863
0.00693862
0.00693863
0.0069386
0.00693838
0.0069383
0.00693849
0.00693856
0.00693855
0.00693854
0.00693853
0.00693853
0.00693852
0.00693852
0.0069385
0.00693841
0.0069385
0.00693854
0.00693855
0.00693856
0.00693856
0.00693858
0.0069386
0.00693861
0.00693862
0.00693863
0.00693864
0.00693866
0.00693865
0.00693865
0.00693866
0.00693867
0.00693866
0.00693866
0.00693866
0.00693857
0.00693833
0.00693821
0.00693814
0.00693817
0.00693818
0.00693823
0.00693816
0.00693809
0.00693809
0.00693807
0.00653511
0.00653513
0.00653512
0.00653514
0.00653513
0.00653518
0.00653521
0.00653516
0.00653513
0.00653512
0.00653512
0.00653515
0.00653526
0.00653554
0.00653559
0.0065356
0.00653558
0.00653547
0.00653523
0.00653518
0.00653539
0.00653545
0.00653544
0.00653541
0.00653541
0.00653541
0.0065354
0.00653539
0.00653537
0.00653528
0.00653538
0.00653542
0.00653544
0.00653547
0.00653549
0.00653552
0.00653555
0.00653557
0.00653559
0.00653561
0.00653563
0.00653565
0.00653566
0.00653568
0.00653568
0.00653569
0.00653569
0.0065357
0.00653569
0.00653555
0.0065353
0.00653519
0.00653515
0.00653519
0.00653523
0.00653522
0.00653517
0.0065351
0.0065351
0.00653508
0.00617387
0.00617389
0.00617388
0.00617389
0.00617388
0.00617392
0.00617395
0.00617392
0.00617387
0.00617385
0.00617382
0.00617381
0.0061739
0.00617415
0.00617427
0.00617427
0.00617423
0.00617392
0.00617379
0.00617378
0.00617399
0.00617403
0.006174
0.00617398
0.00617397
0.00617395
0.00617394
0.00617394
0.00617393
0.00617383
0.00617395
0.006174
0.00617403
0.00617407
0.00617411
0.00617415
0.00617419
0.00617424
0.00617428
0.00617433
0.00617435
0.00617439
0.00617441
0.00617443
0.00617446
0.00617447
0.00617447
0.00617448
0.00617441
0.00617414
0.006174
0.00617392
0.00617392
0.00617398
0.00617399
0.00617398
0.00617393
0.00617387
0.00617388
0.00617386
0.00584839
0.00584839
0.00584839
0.0058484
0.00584838
0.0058484
0.00584843
0.0058484
0.00584835
0.00584829
0.00584825
0.00584819
0.00584821
0.00584832
0.00584859
0.00584865
0.00584857
0.00584821
0.00584809
0.00584806
0.00584828
0.00584831
0.00584827
0.00584823
0.0058482
0.00584818
0.00584818
0.00584817
0.00584815
0.00584807
0.0058482
0.00584827
0.00584832
0.00584838
0.00584844
0.0058485
0.00584857
0.00584863
0.00584869
0.00584875
0.00584881
0.00584885
0.00584889
0.00584893
0.00584896
0.00584898
0.005849
0.005849
0.00584886
0.0058486
0.00584848
0.00584843
0.00584848
0.00584851
0.0058485
0.0058485
0.00584845
0.0058484
0.00584841
0.00584839
0.00555373
0.00555373
0.00555373
0.00555372
0.0055537
0.00555371
0.00555372
0.00555369
0.00555365
0.00555357
0.0055535
0.00555341
0.00555339
0.00555345
0.00555376
0.00555383
0.00555364
0.0055533
0.00555317
0.00555313
0.00555333
0.00555334
0.00555328
0.00555323
0.00555319
0.00555317
0.00555315
0.00555316
0.00555315
0.00555306
0.00555321
0.0055533
0.00555338
0.00555346
0.00555354
0.00555363
0.00555372
0.00555382
0.0055539
0.00555398
0.00555406
0.00555413
0.00555418
0.00555423
0.00555428
0.00555432
0.00555434
0.00555427
0.005554
0.00555387
0.00555379
0.00555382
0.00555383
0.00555386
0.00555385
0.00555385
0.00555381
0.00555376
0.00555376
0.00555375
0.00528582
0.00528582
0.0052858
0.0052858
0.00528577
0.00528576
0.00528577
0.00528571
0.00528566
0.0052856
0.0052855
0.00528538
0.00528534
0.00528539
0.00528562
0.00528567
0.00528531
0.00528508
0.00528496
0.00528492
0.00528508
0.00528508
0.005285
0.00528493
0.00528488
0.00528485
0.00528484
0.00528483
0.00528483
0.00528476
0.00528492
0.00528503
0.00528513
0.00528524
0.00528536
0.00528548
0.0052856
0.00528572
0.00528585
0.00528595
0.00528605
0.00528614
0.00528623
0.0052863
0.00528636
0.00528641
0.00528643
0.00528633
0.00528605
0.00528594
0.00528592
0.00528592
0.00528594
0.00528596
0.00528596
0.00528596
0.00528592
0.00528588
0.00528588
0.00528587
0.00504127
0.00504127
0.00504125
0.00504123
0.0050412
0.00504118
0.00504117
0.0050411
0.00504103
0.00504095
0.00504085
0.00504069
0.00504058
0.00504057
0.00504062
0.00504077
0.00504043
0.00504021
0.00504008
0.00504001
0.0050401
0.0050401
0.00504002
0.00503993
0.00503986
0.00503982
0.0050398
0.0050398
0.00503981
0.00503975
0.00503993
0.00504007
0.0050402
0.00504034
0.00504049
0.00504065
0.00504081
0.00504097
0.00504112
0.00504127
0.00504139
0.00504151
0.00504162
0.00504171
0.00504178
0.00504183
0.00504179
0.00504165
0.00504148
0.00504139
0.00504139
0.0050414
0.00504141
0.00504144
0.00504144
0.00504144
0.0050414
0.00504136
0.00504136
0.00504136
0.00481722
0.00481722
0.0048172
0.00481717
0.00481713
0.00481711
0.00481706
0.004817
0.0048169
0.0048168
0.00481668
0.00481653
0.00481636
0.00481627
0.00481626
0.00481635
0.00481606
0.00481584
0.00481566
0.00481553
0.00481546
0.00481555
0.00481548
0.00481537
0.00481529
0.00481523
0.00481521
0.00481521
0.00481522
0.00481519
0.0048154
0.00481556
0.00481573
0.00481591
0.0048161
0.0048163
0.0048165
0.0048167
0.00481688
0.00481706
0.00481723
0.00481738
0.00481751
0.00481763
0.00481771
0.00481773
0.0048176
0.00481753
0.00481744
0.00481737
0.00481737
0.00481739
0.0048174
0.00481743
0.00481743
0.00481743
0.00481739
0.00481735
0.00481736
0.00481735
0.00461127
0.00461127
0.00461124
0.00461121
0.00461116
0.00461112
0.00461106
0.00461098
0.00461086
0.00461074
0.0046106
0.00461042
0.00461024
0.00461005
0.00460993
0.00460984
0.00460971
0.00460952
0.0046093
0.00460913
0.00460897
0.00460907
0.00460899
0.00460886
0.00460875
0.00460868
0.00460865
0.00460866
0.00460868
0.00460866
0.0046089
0.00460909
0.0046093
0.00460953
0.00460977
0.00461002
0.00461026
0.00461051
0.00461075
0.00461096
0.00461116
0.00461135
0.0046115
0.00461164
0.00461173
0.00461173
0.00461162
0.0046116
0.00461151
0.00461145
0.00461146
0.00461148
0.0046115
0.00461151
0.00461152
0.00461151
0.00461148
0.00461145
0.00461145
0.00461144
0.00442137
0.00442137
0.00442133
0.00442129
0.00442123
0.00442117
0.0044211
0.004421
0.00442086
0.00442072
0.00442055
0.00442034
0.00442014
0.00441992
0.0044197
0.00441955
0.00441943
0.00441921
0.00441896
0.00441874
0.00441854
0.0044186
0.00441848
0.00441832
0.00441819
0.00441811
0.00441807
0.00441808
0.00441811
0.00441812
0.00441838
0.00441862
0.00441887
0.00441915
0.00441944
0.00441974
0.00442005
0.00442035
0.00442063
0.0044209
0.00442114
0.00442136
0.00442154
0.00442169
0.00442173
0.0044217
0.0044217
0.00442169
0.00442162
0.00442159
0.0044216
0.00442161
0.00442163
0.00442165
0.00442165
0.00442165
0.00442161
0.00442159
0.00442158
0.00442157
0.00424575
0.00424574
0.0042457
0.00424565
0.00424559
0.00424552
0.00424543
0.0042453
0.00424516
0.00424498
0.00424479
0.00424455
0.00424431
0.00424405
0.0042438
0.0042436
0.00424344
0.00424318
0.00424287
0.00424261
0.00424236
0.00424237
0.00424221
0.00424201
0.00424185
0.00424175
0.0042417
0.00424172
0.00424176
0.0042418
0.0042421
0.00424238
0.00424269
0.00424302
0.00424338
0.00424374
0.00424411
0.00424447
0.0042448
0.00424512
0.0042454
0.00424566
0.00424587
0.00424599
0.00424596
0.00424602
0.00424605
0.00424607
0.00424603
0.00424601
0.00424603
0.00424604
0.00424606
0.00424607
0.00424607
0.00424607
0.00424603
0.00424601
0.004246
0.00424599
0.00408291
0.00408289
0.00408285
0.0040828
0.00408271
0.00408263
0.00408253
0.00408238
0.00408221
0.00408201
0.00408178
0.00408152
0.00408125
0.00408095
0.00408066
0.00408042
0.0040802
0.00407989
0.00407953
0.0040792
0.00407892
0.00407881
0.00407865
0.00407842
0.00407823
0.0040781
0.00407805
0.00407806
0.00407812
0.00407819
0.00407852
0.00407886
0.00407923
0.00407963
0.00408005
0.00408049
0.00408092
0.00408135
0.00408174
0.00408211
0.00408244
0.00408273
0.00408297
0.00408308
0.00408308
0.00408315
0.00408321
0.0040832
0.00408319
0.0040832
0.00408323
0.00408325
0.00408326
0.00408327
0.00408327
0.00408326
0.00408322
0.0040832
0.00408319
0.00408318
0.00393153
0.00393151
0.00393147
0.0039314
0.00393131
0.00393121
0.00393109
0.00393092
0.00393073
0.00393051
0.00393026
0.00392995
0.00392965
0.00392931
0.00392897
0.00392868
0.00392841
0.00392803
0.00392763
0.00392722
0.00392686
0.00392657
0.00392646
0.00392623
0.00392601
0.00392585
0.00392578
0.0039258
0.00392588
0.00392598
0.00392636
0.00392676
0.00392719
0.00392767
0.00392817
0.00392869
0.0039292
0.00392969
0.00393016
0.00393058
0.00393096
0.00393128
0.00393147
0.00393157
0.00393167
0.00393178
0.00393186
0.00393185
0.00393184
0.00393188
0.0039319
0.00393192
0.00393192
0.00393193
0.00393193
0.00393191
0.00393188
0.00393185
0.00393184
0.00393183
0.00379048
0.00379046
0.00379041
0.00379033
0.00379023
0.00379012
0.00378998
0.00378979
0.00378958
0.00378933
0.00378905
0.00378872
0.00378836
0.00378799
0.0037876
0.00378725
0.00378693
0.0037865
0.00378602
0.00378555
0.00378511
0.00378471
0.00378457
0.00378431
0.00378405
0.00378386
0.00378377
0.00378379
0.00378389
0.00378402
0.00378446
0.00378493
0.00378544
0.003786
0.0037866
0.0037872
0.0037878
0.00378837
0.00378891
0.00378939
0.00378981
0.00379013
0.00379026
0.00379044
0.00379061
0.00379076
0.00379084
0.00379084
0.00379085
0.00379088
0.00379091
0.00379092
0.00379091
0.00379092
0.00379091
0.00379089
0.00379085
0.00379082
0.00379081
0.0037908
0.00365876
0.00365874
0.00365868
0.0036586
0.00365849
0.00365837
0.00365821
0.003658
0.00365777
0.00365749
0.00365718
0.00365681
0.00365642
0.003656
0.00365556
0.00365515
0.00365476
0.00365427
0.00365374
0.00365319
0.00365267
0.00365221
0.00365195
0.00365166
0.00365135
0.00365113
0.00365102
0.00365103
0.00365116
0.00365134
0.00365183
0.00365238
0.00365299
0.00365365
0.00365435
0.00365506
0.00365575
0.0036564
0.00365701
0.00365754
0.00365801
0.00365834
0.00365851
0.00365873
0.00365893
0.00365908
0.00365913
0.00365915
0.00365919
0.00365923
0.00365924
0.00365924
0.00365924
0.00365924
0.00365922
0.00365919
0.00365915
0.00365912
0.0036591
0.0036591
0.00353551
0.00353548
0.00353543
0.00353534
0.00353521
0.00353508
0.0035349
0.00353468
0.00353442
0.00353411
0.00353377
0.00353337
0.00353294
0.00353248
0.00353199
0.0035315
0.00353103
0.00353049
0.00352989
0.00352927
0.00352866
0.0035281
0.00352764
0.00352738
0.00352705
0.00352679
0.00352665
0.00352667
0.00352682
0.00352705
0.00352762
0.00352826
0.00352897
0.00352975
0.00353056
0.00353138
0.00353217
0.00353292
0.00353357
0.00353413
0.00353461
0.00353495
0.00353524
0.00353551
0.00353574
0.00353587
0.00353592
0.00353596
0.003536
0.00353604
0.00353604
0.00353603
0.00353602
0.00353601
0.00353598
0.00353594
0.0035359
0.00353586
0.00353585
0.00353584
0.00341995
0.00341993
0.00341986
0.00341977
0.00341964
0.00341948
0.0034193
0.00341905
0.00341877
0.00341844
0.00341807
0.00341763
0.00341716
0.00341665
0.00341609
0.00341552
0.00341497
0.00341439
0.00341373
0.00341303
0.00341234
0.00341167
0.00341109
0.00341079
0.0034104
0.00341009
0.00340992
0.00340993
0.00341011
0.0034104
0.00341105
0.0034118
0.00341264
0.00341355
0.00341449
0.00341543
0.00341633
0.00341714
0.00341786
0.00341848
0.00341894
0.00341935
0.00341973
0.00342003
0.00342025
0.00342035
0.00342041
0.00342047
0.00342052
0.00342054
0.00342054
0.00342052
0.00342049
0.00342046
0.00342043
0.00342039
0.00342033
0.0034203
0.00342028
0.00342026
0.00331141
0.00331138
0.00331132
0.00331122
0.00331108
0.00331091
0.00331071
0.00331045
0.00331015
0.00330979
0.00330939
0.00330893
0.00330841
0.00330785
0.00330724
0.0033066
0.00330597
0.00330533
0.00330459
0.00330381
0.00330302
0.00330227
0.00330159
0.00330116
0.00330072
0.00330034
0.00330015
0.00330015
0.00330037
0.00330074
0.00330148
0.00330236
0.00330335
0.0033044
0.00330549
0.00330656
0.00330754
0.00330843
0.00330923
0.00330992
0.00331043
0.00331089
0.00331129
0.00331161
0.00331181
0.0033119
0.00331197
0.00331203
0.00331206
0.00331206
0.00331204
0.00331201
0.00331197
0.00331193
0.00331188
0.00331183
0.00331177
0.00331173
0.0033117
0.00331169
0.00320929
0.00320926
0.00320919
0.00320908
0.00320894
0.00320876
0.00320854
0.00320827
0.00320795
0.00320757
0.00320714
0.00320664
0.0032061
0.00320549
0.00320483
0.00320413
0.00320341
0.00320269
0.00320188
0.00320101
0.00320013
0.00319927
0.0031985
0.00319788
0.0031975
0.00319706
0.00319682
0.00319684
0.00319711
0.00319755
0.00319843
0.00319947
0.00320062
0.00320184
0.00320308
0.00320429
0.00320524
0.00320621
0.00320703
0.00320777
0.00320839
0.00320891
0.00320933
0.00320961
0.00320977
0.00320988
0.00320995
0.00321
0.00321002
0.00321
0.00320996
0.00320991
0.00320985
0.00320979
0.00320973
0.00320967
0.00320961
0.00320956
0.00320953
0.00320951
0.00311305
0.00311302
0.00311295
0.00311283
0.00311268
0.00311249
0.00311226
0.00311198
0.00311164
0.00311124
0.00311078
0.00311026
0.00310968
0.00310903
0.00310832
0.00310755
0.00310673
0.00310591
0.00310505
0.00310412
0.00310315
0.00310219
0.00310131
0.00310087
0.00314721
0.00314679
0.00314653
0.00314655
0.00314685
0.00314736
0.00314831
0.00314945
0.00315069
0.00315201
0.00315335
0.00315462
0.00310967
0.00311001
0.0031109
0.00311169
0.00311236
0.00311289
0.00311328
0.00311351
0.00311366
0.00311377
0.00311384
0.00311387
0.00311385
0.00311381
0.00311375
0.00311368
0.00311359
0.00311352
0.00311345
0.00311337
0.00311331
0.00311325
0.00311321
0.0031132
0.00302221
0.00302218
0.00302211
0.00302199
0.00302183
0.00302163
0.0030214
0.0030211
0.00302074
0.00302033
0.00301985
0.0030193
0.00301868
0.003018
0.00301725
0.00301641
0.00301552
0.00301459
0.00301364
0.00301267
0.00301162
0.00301058
0.00300994
0.00305348
0.00305109
0.00305078
0.00305048
0.00305051
0.0030509
0.00305155
0.00305268
0.00305402
0.00305548
0.003057
0.0030585
0.00305982
0.00306295
0.00302005
0.00302041
0.00302121
0.00302187
0.00302237
0.00302271
0.0030229
0.00302303
0.00302311
0.00302315
0.00302314
0.00302309
0.00302302
0.00302293
0.00302283
0.00302273
0.00302264
0.00302254
0.00302246
0.00302238
0.00302232
0.00302227
0.00302226
0.00293635
0.00293632
0.00293624
0.00293612
0.00293596
0.00293576
0.00293551
0.0029352
0.00293483
0.0029344
0.00293391
0.00293334
0.0029327
0.00293198
0.00293119
0.00293031
0.00292935
0.00292834
0.00292731
0.00292626
0.00292515
0.00292406
0.00292363
0.00296289
0.00296065
0.00298221
0.00298195
0.00298205
0.00298256
0.00298336
0.00298466
0.00298616
0.00298777
0.00298943
0.00299105
0.00297125
0.00297383
0.0029353
0.00293515
0.00293588
0.00293647
0.00293689
0.00293715
0.00293731
0.00293741
0.00293746
0.00293744
0.00293739
0.0029373
0.00293719
0.00293707
0.00293694
0.00293682
0.0029367
0.0029366
0.0029365
0.0029364
0.00293633
0.00293629
0.00293627
0.00285508
0.00285504
0.00285497
0.00285484
0.00285468
0.00285448
0.00285422
0.00285391
0.00285353
0.00285309
0.00285258
0.00285199
0.00285133
0.00285059
0.00284976
0.00284885
0.00284784
0.00284677
0.00284564
0.00284451
0.00284336
0.0028423
0.00284218
0.00287745
0.00287545
0.00289498
0.00289494
0.0028953
0.00289614
0.0028973
0.00289879
0.00290044
0.00290217
0.00290392
0.00290555
0.00288865
0.00289009
0.00285555
0.00285481
0.00285536
0.0028558
0.00285609
0.00285627
0.00285638
0.00285643
0.00285641
0.00285634
0.00285623
0.00285609
0.00285594
0.00285578
0.00285562
0.00285548
0.00285534
0.00285521
0.0028551
0.00285499
0.00285491
0.00285486
0.00285484
0.00277805
0.00277802
0.00277794
0.00277782
0.00277765
0.00277744
0.00277719
0.00277687
0.00277649
0.00277604
0.00277553
0.00277492
0.00277425
0.00277349
0.00277264
0.00277169
0.00277066
0.00276954
0.00276835
0.00276714
0.00276596
0.00276499
0.00276529
0.00279701
0.0027953
0.00281299
0.0028135
0.00281471
0.00281653
0.00281847
0.00282031
0.00282187
0.00282328
0.00282465
0.00282612
0.00281147
0.00281172
0.00278057
0.00277909
0.00277931
0.00277954
0.00277968
0.00277975
0.00277977
0.00277972
0.00277962
0.00277947
0.0027793
0.00277911
0.00277892
0.00277872
0.00277853
0.00277835
0.00277819
0.00277804
0.00277791
0.0027778
0.00277771
0.00277765
0.00277763
0.00270496
0.00270492
0.00270484
0.00270472
0.00270455
0.00270435
0.00270409
0.00270377
0.00270339
0.00270295
0.00270242
0.00270182
0.00270114
0.00270037
0.00269951
0.00269855
0.0026975
0.00269636
0.00269515
0.00269391
0.00269272
0.00269188
0.00269269
0.00272134
0.00272034
0.00273652
0.0027383
0.0027421
0.00274687
0.00275127
0.00275373
0.00275405
0.00275342
0.00275291
0.00275311
0.00274023
0.00273872
0.00271014
0.00270775
0.00270746
0.00270741
0.00270735
0.00270727
0.00270714
0.00270697
0.00270677
0.00270654
0.0027063
0.00270605
0.0027058
0.00270556
0.00270533
0.00270513
0.00270494
0.00270477
0.00270463
0.0027045
0.0027044
0.00270434
0.00270431
0.0026355
0.00263547
0.00263539
0.00263527
0.00263511
0.00263491
0.00263465
0.00263434
0.00263396
0.00263352
0.002633
0.0026324
0.00263172
0.00263095
0.00263009
0.00262913
0.00262809
0.00262695
0.00262576
0.00262455
0.00262344
0.00262278
0.00262414
0.0026503
0.00265066
0.00266586
0.00267202
0.00268282
0.00269798
0.00271206
0.00271612
0.0027095
0.00269953
0.00269193
0.00268759
0.00267525
0.0026711
0.00264411
0.00264066
0.00263966
0.00263919
0.00263883
0.00263851
0.0026382
0.00263788
0.00263756
0.00263724
0.00263692
0.0026366
0.0026363
0.00263602
0.00263576
0.00263551
0.00263531
0.00263512
0.00263496
0.00263482
0.00263471
0.00263465
0.00263462
0.00256944
0.0025694
0.00256933
0.00256921
0.00256905
0.00256886
0.00256861
0.0025683
0.00256794
0.0025675
0.002567
0.00256641
0.00256574
0.00256499
0.00256414
0.0025632
0.00256217
0.00256107
0.00255992
0.0025588
0.00255785
0.00255744
0.00255941
0.00258376
0.00258623
0.00260315
0.00262033
0.00265359
0.00271319
0.00278042
0.00279066
0.00273962
0.00268385
0.0026495
0.00263199
0.00261684
0.00260904
0.00258232
0.00257763
0.00257564
0.00257459
0.00257382
0.00257321
0.00257267
0.00257219
0.00257173
0.00257131
0.0025709
0.00257052
0.00257016
0.00256983
0.00256953
0.00256926
0.00256903
0.00256882
0.00256865
0.0025685
0.00256838
0.00256831
0.00256828
0.00250652
0.00250649
0.00250642
0.00250631
0.00250616
0.00250597
0.00250573
0.00250544
0.00250508
0.00250466
0.00250418
0.00250361
0.00250296
0.00250223
0.00250141
0.00250051
0.00249952
0.00249848
0.00249742
0.00249641
0.00249571
0.00249558
0.00249839
0.00252183
0.00252697
0.00255213
0.00259557
0.00270599
0.00287498
0.00303296
0.00305637
0.00294112
0.00277959
0.00264449
0.00259107
0.0025645
0.00255266
0.00252461
0.0025184
0.00251511
0.00251332
0.00251205
0.00251109
0.0025103
0.00250963
0.00250903
0.00250849
0.002508
0.00250755
0.00250714
0.00250676
0.00250643
0.00250613
0.00250587
0.00250565
0.00250546
0.0025053
0.00250517
0.0025051
0.00250506
0.00244655
0.00244652
0.00244645
0.00244635
0.0024462
0.00244603
0.0024458
0.00244552
0.00244519
0.00244479
0.00244432
0.00244378
0.00244317
0.00244248
0.0024417
0.00244084
0.00243992
0.00243896
0.00243801
0.00243716
0.00243673
0.00243687
0.00244077
0.00246438
0.00247371
0.00251707
0.00261409
0.00285296
0.00322304
0.00410345
0.00408533
0.0034349
0.00298742
0.00271361
0.00257132
0.00251711
0.00250206
0.0024704
0.00246259
0.00245775
0.00245509
0.00245325
0.0024519
0.00245084
0.00244997
0.00244922
0.00244857
0.00244799
0.00244747
0.002447
0.00244659
0.00244622
0.00244589
0.00244561
0.00244537
0.00244517
0.002445
0.00244487
0.00244479
0.00244476
0.00238931
0.00238928
0.00238922
0.00238913
0.002389
0.00238883
0.00238862
0.00238836
0.00238805
0.00238768
0.00238725
0.00238674
0.00238617
0.00238552
0.0023848
0.00238402
0.00238318
0.00238232
0.00238151
0.00238084
0.00238068
0.00238106
0.0023863
0.00241065
0.00242717
0.00249737
0.00266935
0.00305595
0.00457603
0.0053269
0.00329723
0.00286328
0.00257789
0.00247212
0.00245655
0.00241906
0.00240973
0.00240322
0.00239961
0.00239714
0.00239538
0.00239403
0.00239296
0.00239206
0.0023913
0.00239064
0.00239006
0.00238955
0.00238909
0.00238869
0.00238835
0.00238805
0.0023878
0.00238759
0.00238741
0.00238728
0.0023872
0.00238717
0.00233464
0.00233461
0.00233456
0.00233447
0.00233435
0.0023342
0.00233401
0.00233378
0.00233349
0.00233315
0.00233276
0.00233229
0.00233177
0.00233119
0.00233054
0.00232983
0.0023291
0.00232837
0.00232772
0.00232725
0.00232732
0.00232795
0.00233473
0.00235969
0.00238657
0.0024821
0.00272694
0.00344019
0.0235682
0.0873696
0.00599853
0.003605
0.00302656
0.0026054
0.00242707
0.00241543
0.00236995
0.0023594
0.00235127
0.00234667
0.00234355
0.00234137
0.00233975
0.00233847
0.00233744
0.00233657
0.00233583
0.00233519
0.00233463
0.00233414
0.00233371
0.00233334
0.00233303
0.00233277
0.00233255
0.00233236
0.00233223
0.00233214
0.00233211
0.00228236
0.00228234
0.00228229
0.00228221
0.00228211
0.00228198
0.00228181
0.0022816
0.00228134
0.00228104
0.00228069
0.00228028
0.00227982
0.0022793
0.00227873
0.00227813
0.00227751
0.00227693
0.00227646
0.0022762
0.00227649
0.00227755
0.00228622
0.00231132
0.00234881
0.00245527
0.00276158
0.00640298
0.092266
0.187147
0.188373
0.00525223
0.00390095
0.0032032
0.00264542
0.00238404
0.00237821
0.00232274
0.00231113
0.00230159
0.00229596
0.00229223
0.00228965
0.00228776
0.0022863
0.00228513
0.00228417
0.00228335
0.00228266
0.00228206
0.00228155
0.0022811
0.00228071
0.00228038
0.00228011
0.00227988
0.00227969
0.00227956
0.00227947
0.00227943
0.00223233
0.00223231
0.00223227
0.0022322
0.00223211
0.002232
0.00223186
0.00223167
0.00223145
0.0022312
0.00223089
0.00223054
0.00223014
0.0022297
0.00222923
0.00222873
0.00222825
0.00222782
0.00222755
0.00222753
0.00222811
0.00223001
0.00224149
0.0022668
0.00231438
0.00241989
0.00284654
0.00773123
0.220522
0.290197
0.192558
0.00506596
0.00424807
0.00334644
0.00269079
0.00234926
0.00234378
0.00227731
0.00226449
0.00225384
0.00224723
0.00224296
0.00224001
0.00223788
0.00223626
0.00223498
0.00223393
0.00223306
0.00223233
0.0022317
0.00223116
0.00223069
0.00223029
0.00222995
0.00222967
0.00222944
0.00222925
0.0022291
0.00222901
0.00222898
0.0021844
0.00218438
0.00218435
0.00218429
0.00218422
0.00218413
0.00218401
0.00218386
0.00218368
0.00218347
0.00218321
0.00218292
0.0021826
0.00218224
0.00218186
0.00218148
0.00218112
0.00218085
0.00218081
0.00218112
0.00218218
0.00218568
0.00220192
0.00222917
0.00229721
0.00243007
0.00342953
0.0402308
0.233694
0.170245
0.0909785
0.00545094
0.00451414
0.0034356
0.00272227
0.00232785
0.0023104
0.00223376
0.00221922
0.00220772
0.00220026
0.00219554
0.00219229
0.00218996
0.00218821
0.00218683
0.00218573
0.00218481
0.00218404
0.00218339
0.00218283
0.00218235
0.00218194
0.0021816
0.00218131
0.00218107
0.00218089
0.00218074
0.00218065
0.00218061
0.00213844
0.00213843
0.0021384
0.00213836
0.00213831
0.00213824
0.00213815
0.00213803
0.00213789
0.00213772
0.00213753
0.0021373
0.00213705
0.00213677
0.00213649
0.00213619
0.00213598
0.00213594
0.00213618
0.0021369
0.00213862
0.00214471
0.00216816
0.00220114
0.00231683
0.00253898
0.00842287
0.124443
0.145981
0.0936525
0.03248
0.00590148
0.00466636
0.00346745
0.0027203
0.00232092
0.00227651
0.00219233
0.00217519
0.002163
0.00215485
0.0021498
0.00214632
0.00214385
0.002142
0.00214056
0.00213941
0.00213846
0.00213768
0.00213701
0.00213644
0.00213596
0.00213554
0.0021352
0.00213491
0.00213467
0.00213448
0.00213434
0.00213425
0.00213421
0.00209433
0.00209433
0.00209431
0.00209428
0.00209425
0.0020942
0.00209414
0.00209406
0.00209396
0.00209385
0.00209371
0.00209355
0.00209336
0.00209314
0.00209294
0.00209282
0.0020928
0.00209301
0.00209353
0.00209467
0.00209719
0.00210681
0.00213926
0.0021823
0.00236759
0.00279045
0.0187494
0.141487
0.0834058
0.0419461
0.0125575
0.00616821
0.0047956
0.00347188
0.00268385
0.00232475
0.00224177
0.00215288
0.0021323
0.00211945
0.00211087
0.00210559
0.00210196
0.00209943
0.00209753
0.00209606
0.00209488
0.00209392
0.00209312
0.00209245
0.00209188
0.00209139
0.00209098
0.00209064
0.00209035
0.00209012
0.00208993
0.00208978
0.0020897
0.00208966
0.00205197
0.00205197
0.00205196
0.00205195
0.00205193
0.00205191
0.00205188
0.00205184
0.00205178
0.00205172
0.00205163
0.00205152
0.00205139
0.00205128
0.00205122
0.00205125
0.00205142
0.00205184
0.00205263
0.00205419
0.0020576
0.00207129
0.00211286
0.0021686
0.00241848
0.00314865
0.0252788
0.13465
0.0516413
0.0175677
0.00769964
0.00669877
0.00517166
0.00353804
0.00265602
0.00232933
0.00220598
0.00211532
0.00209054
0.00207701
0.0020683
0.00206291
0.00205918
0.00205659
0.00205468
0.00205319
0.00205202
0.00205106
0.00205026
0.0020496
0.00204903
0.00204855
0.00204815
0.00204781
0.00204753
0.00204729
0.00204711
0.00204697
0.00204688
0.00204685
0.00201125
0.00201125
0.00201125
0.00201126
0.00201126
0.00201126
0.00201126
0.00201126
0.00201125
0.00201122
0.00201116
0.00201111
0.00201109
0.0020111
0.00201117
0.00201134
0.00201167
0.0020123
0.00201333
0.00201526
0.00201955
0.00203722
0.00208634
0.0021542
0.0024457
0.00344168
0.025965
0.12945
0.0524941
0.0134007
0.00993686
0.00912728
0.00751139
0.00400543
0.00269159
0.00231708
0.00216951
0.00207878
0.00204984
0.00203575
0.00202707
0.00202162
0.0020179
0.00201527
0.00201334
0.00201187
0.00201073
0.0020098
0.00200902
0.00200836
0.00200781
0.00200734
0.00200694
0.00200661
0.00200634
0.00200611
0.00200593
0.0020058
0.00200571
0.00200568
0.00197207
0.00197208
0.00197209
0.00197211
0.00197213
0.00197216
0.00197219
0.00197222
0.00197224
0.00197225
0.00197226
0.0019723
0.00197237
0.00197248
0.00197267
0.00197297
0.00197344
0.00197425
0.00197546
0.00197769
0.00198278
0.00200384
0.00205815
0.00213571
0.00244686
0.0035931
0.0244078
0.117856
0.070376
0.0205255
0.0127831
0.0186603
0.0182425
0.00900519
0.00288186
0.00227203
0.00213294
0.00204245
0.00201004
0.00199563
0.00198722
0.00198168
0.00197803
0.00197544
0.00197352
0.00197206
0.00197094
0.00197004
0.00196929
0.00196866
0.00196812
0.00196767
0.00196728
0.00196696
0.0019667
0.00196648
0.0019663
0.00196617
0.00196609
0.00196606
0.00193435
0.00193437
0.00193439
0.00193442
0.00193446
0.00193452
0.00193457
0.00193463
0.00193469
0.00193474
0.00193484
0.00193495
0.00193511
0.00193532
0.00193561
0.00193603
0.00193664
0.0019376
0.00193894
0.00194138
0.00194714
0.00197067
0.00202774
0.00211195
0.00242926
0.00369722
0.0219311
0.102545
0.0885084
0.0360278
0.0150891
0.0158745
0.0212399
0.0235742
0.00359341
0.00223416
0.00209637
0.00200583
0.00197116
0.00195665
0.00194867
0.00194311
0.0019395
0.00193697
0.0019351
0.00193367
0.00193257
0.00193171
0.001931
0.0019304
0.00192988
0.00192945
0.00192908
0.00192878
0.00192852
0.00192831
0.00192814
0.00192802
0.00192794
0.00192791
0.00189801
0.00189803
0.00189806
0.00189811
0.00189817
0.00189824
0.00189831
0.0018984
0.00189851
0.00189864
0.00189879
0.00189898
0.00189922
0.00189952
0.0018999
0.00190043
0.00190116
0.00190225
0.00190368
0.00190629
0.00191254
0.00193761
0.0019954
0.00208347
0.00240046
0.00391111
0.0193006
0.0860354
0.0999084
0.0557446
0.0252699
0.0153227
0.0191906
0.0299821
0.00520022
0.00230553
0.00205885
0.00196893
0.00193335
0.00191888
0.00191137
0.00190587
0.00190236
0.00189983
0.001898
0.0018966
0.00189557
0.00189474
0.00189407
0.00189351
0.00189303
0.00189261
0.00189227
0.00189198
0.00189173
0.00189153
0.00189137
0.00189126
0.00189118
0.00189115
0.00186297
0.001863
0.00186304
0.0018631