/*--------------------------------*- C++ -*----------------------------------*\
  =========                 |
  \\      /  F ield         | OpenFOAM: The Open Source CFD Toolbox
   \\    /   O peration     | Website:  https://openfoam.org
    \\  /    A nd           | Version:  12
     \\/     M anipulation  |
\*---------------------------------------------------------------------------*/
FoamFile
{
    format      ascii;
    class       volScalarField;
    location    "500";
    object      nut;
}
// * * * * * * * * * * * * * * * * * * * * * * * * * * * * * * * * * * * * * //

dimensions      [0 2 -1 0 0 0 0];

internalField   nonuniform List<scalar> 
16227
(
0.000978543
0.000978543
0.000978543
0.000978543
0.000978543
0.000978543
0.000978543
0.000978543
0.000978543
0.000978543
0.000978543
0.000978543
0.000978544
0.000978544
0.000978544
0.000978544
0.000978544
0.000978544
0.000978544
0.000978544
0.000978544
0.000978544
0.000978544
0.000978544
0.000978544
0.000978544
0.000978544
0.000978544
0.000978544
0.000978544
0.000978544
0.000978544
0.000978544
0.000978544
0.000978544
0.000978544
0.000978544
0.000978544
0.000978544
0.000978544
0.000978544
0.000978544
0.000978544
0.000978544
0.000978544
0.000978544
0.000978544
0.000978544
0.000978544
0.000978544
0.000978544
0.000978543
0.000978543
0.000978543
0.000978543
0.000978543
0.000978543
0.000978543
0.000978543
0.000978543
0.000972834
0.000972834
0.000972834
0.000972834
0.000972834
0.000972834
0.000972834
0.000972834
0.000972834
0.000972834
0.000972835
0.000972835
0.000972836
0.000972836
0.000972837
0.000972836
0.000972836
0.000972836
0.000972836
0.000972836
0.000972837
0.000972837
0.000972837
0.000972837
0.000972837
0.000972837
0.000972837
0.000972837
0.000972836
0.000972836
0.000972837
0.000972837
0.000972837
0.000972837
0.000972837
0.000972837
0.000972837
0.000972837
0.000972837
0.000972837
0.000972837
0.000972837
0.000972837
0.000972836
0.000972836
0.000972836
0.000972836
0.000972836
0.000972836
0.000972836
0.000972836
0.000972836
0.000972835
0.000972835
0.000972834
0.000972834
0.000972835
0.000972834
0.000972834
0.000972834
0.000967494
0.000967494
0.000967494
0.000967494
0.000967494
0.000967495
0.000967494
0.000967494
0.000967494
0.000967495
0.000967495
0.000967495
0.000967497
0.000967498
0.000967498
0.000967498
0.000967498
0.000967498
0.000967498
0.000967497
0.000967498
0.000967498
0.000967498
0.000967498
0.000967498
0.000967498
0.000967498
0.000967498
0.000967498
0.000967497
0.000967498
0.000967498
0.000967498
0.000967498
0.000967498
0.000967498
0.000967498
0.000967498
0.000967498
0.000967498
0.000967498
0.000967498
0.000967498
0.000967498
0.000967498
0.000967498
0.000967498
0.000967498
0.000967498
0.000967498
0.000967497
0.000967496
0.000967495
0.000967495
0.000967495
0.000967495
0.000967495
0.000967494
0.000967494
0.000967494
0.000962481
0.000962481
0.000962481
0.000962481
0.000962481
0.000962482
0.000962482
0.000962481
0.000962481
0.000962481
0.000962482
0.000962482
0.000962485
0.000962485
0.000962485
0.000962486
0.000962486
0.000962486
0.000962485
0.000962484
0.000962485
0.000962485
0.000962485
0.000962485
0.000962485
0.000962485
0.000962485
0.000962485
0.000962485
0.000962485
0.000962485
0.000962486
0.000962486
0.000962486
0.000962486
0.000962486
0.000962486
0.000962486
0.000962486
0.000962486
0.000962487
0.000962487
0.000962486
0.000962487
0.000962486
0.000962486
0.000962486
0.000962486
0.000962486
0.000962486
0.000962485
0.000962483
0.000962482
0.000962482
0.000962482
0.000962483
0.000962482
0.000962482
0.000962482
0.000962481
0.000957759
0.000957759
0.00095776
0.00095776
0.00095776
0.00095776
0.00095776
0.00095776
0.00095776
0.00095776
0.00095776
0.00095776
0.000957763
0.000957764
0.000957764
0.000957764
0.000957764
0.000957764
0.000957762
0.000957761
0.000957763
0.000957764
0.000957764
0.000957764
0.000957764
0.000957764
0.000957764
0.000957764
0.000957764
0.000957763
0.000957764
0.000957764
0.000957765
0.000957765
0.000957765
0.000957765
0.000957766
0.000957766
0.000957766
0.000957766
0.000957766
0.000957766
0.000957766
0.000957766
0.000957766
0.000957766
0.000957766
0.000957766
0.000957766
0.000957765
0.000957763
0.000957762
0.000957761
0.000957761
0.000957762
0.000957762
0.000957761
0.000957761
0.000957761
0.00095776
0.000953299
0.000953299
0.000953299
0.000953299
0.000953299
0.0009533
0.0009533
0.000953299
0.000953299
0.000953299
0.000953299
0.000953299
0.0009533
0.000953303
0.000953304
0.000953304
0.000953304
0.000953302
0.0009533
0.000953299
0.000953302
0.000953302
0.000953302
0.000953302
0.000953302
0.000953303
0.000953303
0.000953303
0.000953303
0.000953302
0.000953303
0.000953304
0.000953304
0.000953305
0.000953305
0.000953306
0.000953306
0.000953307
0.000953307
0.000953307
0.000953307
0.000953308
0.000953308
0.000953308
0.000953308
0.000953308
0.000953308
0.000953308
0.000953308
0.000953306
0.000953304
0.000953302
0.000953302
0.000953302
0.000953303
0.000953303
0.000953302
0.000953301
0.000953301
0.000953301
0.000949075
0.000949075
0.000949075
0.000949075
0.000949075
0.000949075
0.000949075
0.000949075
0.000949074
0.000949074
0.000949073
0.000949073
0.000949074
0.000949077
0.000949078
0.000949078
0.000949078
0.000949074
0.000949073
0.000949073
0.000949075
0.000949076
0.000949076
0.000949076
0.000949076
0.000949076
0.000949076
0.000949076
0.000949077
0.000949076
0.000949077
0.000949078
0.000949079
0.00094908
0.000949081
0.000949081
0.000949082
0.000949083
0.000949083
0.000949084
0.000949084
0.000949085
0.000949085
0.000949085
0.000949085
0.000949086
0.000949086
0.000949086
0.000949085
0.000949082
0.00094908
0.000949079
0.000949079
0.00094908
0.00094908
0.00094908
0.000949079
0.000949078
0.000949078
0.000949078
0.000945064
0.000945063
0.000945063
0.000945063
0.000945063
0.000945063
0.000945064
0.000945063
0.000945063
0.000945062
0.000945061
0.00094506
0.00094506
0.000945062
0.000945065
0.000945066
0.000945065
0.00094506
0.000945059
0.000945059
0.000945062
0.000945062
0.000945062
0.000945062
0.000945062
0.000945062
0.000945062
0.000945063
0.000945063
0.000945062
0.000945064
0.000945066
0.000945067
0.000945068
0.000945069
0.00094507
0.000945071
0.000945072
0.000945073
0.000945074
0.000945075
0.000945075
0.000945076
0.000945076
0.000945077
0.000945077
0.000945077
0.000945077
0.000945075
0.000945072
0.00094507
0.00094507
0.00094507
0.000945071
0.000945071
0.00094507
0.00094507
0.000945069
0.000945069
0.000945069
0.000941247
0.000941246
0.000941246
0.000941246
0.000941246
0.000941246
0.000941246
0.000941246
0.000941245
0.000941244
0.000941243
0.000941241
0.000941241
0.000941242
0.000941246
0.000941247
0.000941244
0.00094124
0.000941238
0.000941238
0.000941241
0.000941241
0.000941241
0.000941241
0.000941241
0.000941241
0.000941241
0.000941242
0.000941242
0.000941242
0.000941244
0.000941246
0.000941248
0.000941249
0.000941251
0.000941252
0.000941254
0.000941256
0.000941257
0.000941258
0.000941259
0.00094126
0.000941261
0.000941262
0.000941262
0.000941263
0.000941263
0.000941262
0.000941258
0.000941256
0.000941255
0.000941256
0.000941256
0.000941256
0.000941256
0.000941256
0.000941255
0.000941255
0.000941254
0.000941254
0.000937607
0.000937607
0.000937607
0.000937606
0.000937606
0.000937606
0.000937606
0.000937605
0.000937604
0.000937603
0.000937601
0.0009376
0.000937599
0.0009376
0.000937603
0.000937603
0.000937598
0.000937595
0.000937594
0.000937594
0.000937596
0.000937597
0.000937596
0.000937596
0.000937596
0.000937596
0.000937597
0.000937597
0.000937598
0.000937598
0.000937601
0.000937603
0.000937605
0.000937607
0.00093761
0.000937612
0.000937614
0.000937616
0.000937618
0.00093762
0.000937621
0.000937623
0.000937624
0.000937625
0.000937626
0.000937626
0.000937626
0.000937625
0.000937621
0.000937619
0.000937619
0.000937619
0.000937619
0.000937619
0.000937619
0.000937619
0.000937618
0.000937618
0.000937618
0.000937618
0.00093413
0.00093413
0.000934129
0.000934129
0.000934128
0.000934128
0.000934127
0.000934126
0.000934125
0.000934124
0.000934122
0.00093412
0.000934118
0.000934118
0.000934118
0.000934121
0.000934116
0.000934113
0.000934112
0.000934111
0.000934113
0.000934113
0.000934113
0.000934112
0.000934112
0.000934113
0.000934113
0.000934114
0.000934115
0.000934116
0.000934119
0.000934122
0.000934125
0.000934128
0.000934131
0.000934134
0.000934136
0.000934139
0.000934142
0.000934144
0.000934146
0.000934148
0.00093415
0.000934151
0.000934152
0.000934152
0.000934152
0.000934149
0.000934147
0.000934145
0.000934145
0.000934145
0.000934145
0.000934145
0.000934145
0.000934145
0.000934145
0.000934144
0.000934144
0.000934144
0.000930802
0.000930802
0.000930801
0.000930801
0.0009308
0.000930799
0.000930799
0.000930798
0.000930796
0.000930794
0.000930792
0.00093079
0.000930787
0.000930786
0.000930785
0.000930787
0.000930783
0.00093078
0.000930777
0.000930776
0.000930775
0.000930777
0.000930777
0.000930777
0.000930777
0.000930777
0.000930778
0.000930779
0.000930781
0.000930782
0.000930786
0.00093079
0.000930793
0.000930797
0.000930801
0.000930804
0.000930808
0.000930812
0.000930815
0.000930818
0.000930821
0.000930823
0.000930825
0.000930827
0.000930828
0.000930828
0.000930826
0.000930825
0.000930823
0.000930822
0.000930822
0.000930822
0.000930822
0.000930822
0.000930822
0.000930822
0.000930821
0.00093082
0.00093082
0.00093082
0.000927612
0.000927612
0.000927612
0.000927611
0.00092761
0.000927609
0.000927608
0.000927606
0.000927604
0.000927602
0.0009276
0.000927597
0.000927594
0.000927591
0.000927589
0.000927587
0.000927585
0.000927583
0.00092758
0.000927578
0.000927577
0.000927579
0.000927579
0.000927578
0.000927578
0.000927578
0.000927579
0.000927581
0.000927583
0.000927585
0.00092759
0.000927594
0.000927599
0.000927603
0.000927608
0.000927613
0.000927618
0.000927622
0.000927627
0.00092763
0.000927634
0.000927637
0.000927639
0.000927641
0.000927642
0.000927642
0.00092764
0.00092764
0.000927638
0.000927637
0.000927636
0.000927637
0.000927637
0.000927637
0.000927636
0.000927636
0.000927635
0.000927635
0.000927635
0.000927635
0.00092455
0.00092455
0.000924549
0.000924548
0.000924547
0.000924546
0.000924545
0.000924543
0.00092454
0.000924538
0.000924534
0.000924531
0.000924527
0.000924524
0.00092452
0.000924518
0.000924516
0.000924513
0.00092451
0.000924507
0.000924505
0.000924507
0.000924507
0.000924506
0.000924506
0.000924506
0.000924507
0.00092451
0.000924512
0.000924514
0.00092452
0.000924526
0.000924532
0.000924537
0.000924543
0.000924549
0.000924555
0.000924561
0.000924566
0.000924571
0.000924575
0.000924579
0.000924581
0.000924584
0.000924584
0.000924583
0.000924583
0.000924582
0.000924581
0.00092458
0.00092458
0.00092458
0.00092458
0.000924579
0.000924579
0.000924579
0.000924578
0.000924578
0.000924578
0.000924577
0.000921607
0.000921606
0.000921606
0.000921604
0.000921603
0.000921601
0.0009216
0.000921597
0.000921595
0.000921591
0.000921588
0.000921583
0.000921579
0.000921574
0.00092157
0.000921567
0.000921565
0.000921561
0.000921557
0.000921554
0.000921551
0.000921552
0.000921552
0.000921551
0.00092155
0.000921551
0.000921553
0.000921555
0.000921559
0.000921562
0.000921569
0.000921576
0.000921582
0.00092159
0.000921597
0.000921604
0.000921611
0.000921618
0.000921625
0.00092163
0.000921635
0.00092164
0.000921643
0.000921645
0.000921644
0.000921645
0.000921645
0.000921644
0.000921643
0.000921642
0.000921642
0.000921642
0.000921642
0.000921642
0.000921641
0.000921641
0.00092164
0.000921639
0.000921639
0.000921639
0.000918773
0.000918773
0.000918772
0.000918771
0.000918769
0.000918767
0.000918765
0.000918762
0.000918759
0.000918755
0.000918751
0.000918746
0.000918741
0.000918735
0.00091873
0.000918726
0.000918723
0.000918719
0.000918713
0.000918709
0.000918706
0.000918706
0.000918706
0.000918705
0.000918704
0.000918705
0.000918707
0.000918711
0.000918715
0.000918719
0.000918727
0.000918735
0.000918744
0.000918752
0.000918761
0.00091877
0.000918779
0.000918787
0.000918794
0.000918801
0.000918807
0.000918812
0.000918816
0.000918817
0.000918817
0.000918817
0.000918818
0.000918817
0.000918816
0.000918815
0.000918815
0.000918815
0.000918815
0.000918814
0.000918814
0.000918813
0.000918812
0.000918812
0.000918811
0.000918811
0.000916043
0.000916043
0.000916042
0.00091604
0.000916038
0.000916036
0.000916033
0.00091603
0.000916026
0.000916022
0.000916016
0.000916011
0.000916005
0.000915999
0.000915993
0.000915988
0.000915984
0.000915978
0.000915972
0.000915967
0.000915963
0.00091596
0.000915961
0.000915961
0.000915961
0.000915962
0.000915964
0.000915968
0.000915973
0.000915979
0.000915988
0.000915998
0.000916008
0.000916018
0.000916029
0.000916039
0.00091605
0.000916059
0.000916068
0.000916075
0.000916082
0.000916088
0.000916091
0.000916092
0.000916093
0.000916094
0.000916095
0.000916094
0.000916093
0.000916092
0.000916092
0.000916091
0.000916091
0.00091609
0.00091609
0.000916089
0.000916088
0.000916087
0.000916087
0.000916086
0.000913409
0.000913409
0.000913408
0.000913406
0.000913404
0.000913401
0.000913398
0.000913394
0.000913389
0.000913384
0.000913378
0.000913372
0.000913365
0.000913358
0.000913351
0.000913345
0.00091334
0.000913334
0.000913327
0.00091332
0.000913315
0.000913311
0.000913313
0.000913313
0.000913313
0.000913314
0.000913317
0.000913322
0.000913329
0.000913336
0.000913347
0.000913358
0.00091337
0.000913382
0.000913395
0.000913407
0.000913418
0.000913429
0.000913439
0.000913448
0.000913455
0.000913461
0.000913462
0.000913465
0.000913467
0.000913468
0.000913469
0.000913468
0.000913467
0.000913466
0.000913465
0.000913465
0.000913464
0.000913463
0.000913462
0.000913461
0.00091346
0.000913459
0.000913459
0.000913458
0.000910866
0.000910865
0.000910864
0.000910862
0.000910859
0.000910856
0.000910853
0.000910848
0.000910843
0.000910837
0.000910831
0.000910823
0.000910815
0.000910807
0.000910799
0.000910792
0.000910786
0.000910779
0.000910771
0.000910764
0.000910758
0.000910754
0.000910754
0.000910755
0.000910755
0.000910758
0.000910762
0.000910768
0.000910776
0.000910785
0.000910798
0.000910811
0.000910825
0.000910839
0.000910853
0.000910867
0.00091088
0.000910892
0.000910903
0.000910912
0.00091092
0.000910925
0.000910927
0.00091093
0.000910932
0.000910934
0.000910933
0.000910932
0.000910931
0.000910931
0.000910929
0.000910928
0.000910927
0.000910926
0.000910925
0.000910924
0.000910922
0.000910921
0.000910921
0.00091092
0.000908407
0.000908406
0.000908405
0.000908403
0.0009084
0.000908396
0.000908392
0.000908387
0.000908382
0.000908375
0.000908368
0.000908359
0.000908351
0.000908342
0.000908333
0.000908324
0.000908317
0.000908309
0.0009083
0.000908292
0.000908285
0.000908281
0.000908279
0.000908282
0.000908285
0.000908288
0.000908294
0.000908302
0.000908312
0.000908323
0.000908338
0.000908354
0.00090837
0.000908385
0.000908401
0.000908416
0.00090843
0.000908443
0.000908454
0.000908463
0.000908471
0.000908475
0.000908479
0.000908482
0.000908484
0.000908485
0.000908484
0.000908482
0.000908481
0.00090848
0.000908479
0.000908477
0.000908476
0.000908474
0.000908472
0.000908471
0.000908469
0.000908468
0.000908467
0.000908467
0.000906028
0.000906027
0.000906026
0.000906023
0.00090602
0.000906016
0.000906012
0.000906007
0.000906
0.000905993
0.000905985
0.000905976
0.000905966
0.000905956
0.000905946
0.000905936
0.000905927
0.000905919
0.00090591
0.000905902
0.000905895
0.00090589
0.000905888
0.000905894
0.000905898
0.000905904
0.000905912
0.000905924
0.000905936
0.00090595
0.000905967
0.000905985
0.000906003
0.00090602
0.000906036
0.000906052
0.000906066
0.000906079
0.00090609
0.000906098
0.000906104
0.000906109
0.000906113
0.000906116
0.000906117
0.000906117
0.000906115
0.000906114
0.000906112
0.00090611
0.000906108
0.000906106
0.000906104
0.000906102
0.0009061
0.000906098
0.000906096
0.000906095
0.000906094
0.000906093
0.000903725
0.000903724
0.000903722
0.00090372
0.000903716
0.000903712
0.000903707
0.000903701
0.000903694
0.000903686
0.000903677
0.000903668
0.000903657
0.000903646
0.000903635
0.000903624
0.000903614
0.000903606
0.000903597
0.000903588
0.000903582
0.000903578
0.000903579
0.000903586
0.000903594
0.000903604
0.000903617
0.000903633
0.00090365
0.000903668
0.000903688
0.000903708
0.000903726
0.000903743
0.000903759
0.000903773
0.000903786
0.000903797
0.000903807
0.000903814
0.000903819
0.000903823
0.000903826
0.000903828
0.000903828
0.000903826
0.000903823
0.000903821
0.000903819
0.000903816
0.000903813
0.00090381
0.000903807
0.000903805
0.000903802
0.0009038
0.000903798
0.000903796
0.000903795
0.000903794
0.000901492
0.000901492
0.00090149
0.000901487
0.000901483
0.000901479
0.000901474
0.000901467
0.00090146
0.000901451
0.000901442
0.000901431
0.00090142
0.000901409
0.000901397
0.000901385
0.000901375
0.000901366
0.000901357
0.00090135
0.000901345
0.000901344
0.000901348
0.000901359
0.00090138
0.000901396
0.000901417
0.00090144
0.000901466
0.000901489
0.000901514
0.000901536
0.000901553
0.000901568
0.00090158
0.000901591
0.00090159
0.000901598
0.000901602
0.000901607
0.00090161
0.000901613
0.000901614
0.000901613
0.00090161
0.000901607
0.000901604
0.000901601
0.000901597
0.000901593
0.000901589
0.000901585
0.000901582
0.000901578
0.000901575
0.000901573
0.00090157
0.000901568
0.000901567
0.000901566
0.000899328
0.000899327
0.000899325
0.000899322
0.000899318
0.000899313
0.000899308
0.000899301
0.000899293
0.000899284
0.000899274
0.000899263
0.000899252
0.00089924
0.000899227
0.000899215
0.000899204
0.000899195
0.000899188
0.000899183
0.000899182
0.000899186
0.000899198
0.000899235
0.00090027
0.000900296
0.000900322
0.000900353
0.000900385
0.000900415
0.000900443
0.000900466
0.000900482
0.000900493
0.000900501
0.000900506
0.000899507
0.000899482
0.00089948
0.000899479
0.000899477
0.000899476
0.000899473
0.000899468
0.000899463
0.000899458
0.000899454
0.000899449
0.000899443
0.000899438
0.000899433
0.000899428
0.000899423
0.000899419
0.000899415
0.000899412
0.000899409
0.000899407
0.000899405
0.000899405
0.000897227
0.000897226
0.000897224
0.000897221
0.000897217
0.000897212
0.000897207
0.0008972
0.000897191
0.000897182
0.000897172
0.000897161
0.000897149
0.000897136
0.000897124
0.000897112
0.000897101
0.000897093
0.000897088
0.000897089
0.000897094
0.000897109
0.000897144
0.000898167
0.000898138
0.000898186
0.000898232
0.000898285
0.000898338
0.000898385
0.000898422
0.000898445
0.000898453
0.00089845
0.00089844
0.000898424
0.000898469
0.000897474
0.000897442
0.00089743
0.000897419
0.00089741
0.000897402
0.000897392
0.000897384
0.000897376
0.000897368
0.000897361
0.000897354
0.000897347
0.00089734
0.000897334
0.000897328
0.000897323
0.000897318
0.000897315
0.000897311
0.000897309
0.000897307
0.000897306
0.000895187
0.000895186
0.000895184
0.000895181
0.000895177
0.000895172
0.000895166
0.000895159
0.000895151
0.000895142
0.000895131
0.00089512
0.000895108
0.000895096
0.000895085
0.000895074
0.000895064
0.000895059
0.000895058
0.000895065
0.000895081
0.000895114
0.000895183
0.000896118
0.000896122
0.000896683
0.000896756
0.000896841
0.000896925
0.000896995
0.000897043
0.000897061
0.000897053
0.000897027
0.000896993
0.000896485
0.000896486
0.000895562
0.000895492
0.00089546
0.000895435
0.000895414
0.000895396
0.000895381
0.000895368
0.000895356
0.000895345
0.000895335
0.000895325
0.000895316
0.000895307
0.0008953
0.000895293
0.000895287
0.000895281
0.000895277
0.000895273
0.00089527
0.000895268
0.000895267
0.000893206
0.000893204
0.000893202
0.000893199
0.000893195
0.00089319
0.000893184
0.000893177
0.000893169
0.00089316
0.00089315
0.000893139
0.000893128
0.000893117
0.000893106
0.000893097
0.000893091
0.00089309
0.000893096
0.000893112
0.000893144
0.000893207
0.000893327
0.000894184
0.000894246
0.00089481
0.000894943
0.000895117
0.000895289
0.000895417
0.000895478
0.000895466
0.0008954
0.000895307
0.000895209
0.000894727
0.000894637
0.000893763
0.000893636
0.000893572
0.000893523
0.000893486
0.000893456
0.000893432
0.000893413
0.000893396
0.00089338
0.000893366
0.000893354
0.000893342
0.000893332
0.000893323
0.000893314
0.000893307
0.000893301
0.000893296
0.000893291
0.000893288
0.000893286
0.000893284
0.000891279
0.000891278
0.000891276
0.000891273
0.000891269
0.000891264
0.000891258
0.000891251
0.000891243
0.000891235
0.000891225
0.000891215
0.000891205
0.000891196
0.000891187
0.000891182
0.00089118
0.000891186
0.000891201
0.000891232
0.000891287
0.000891393
0.000891585
0.00089239
0.000892553
0.000893146
0.000893414
0.000893812
0.000894209
0.000894491
0.000894574
0.000894458
0.000894219
0.000893947
0.000893704
0.000893201
0.000892959
0.000892094
0.000891885
0.000891769
0.000891686
0.000891626
0.00089158
0.000891545
0.000891516
0.000891492
0.000891472
0.000891453
0.000891437
0.000891423
0.000891411
0.000891399
0.00089139
0.000891381
0.000891374
0.000891368
0.000891363
0.000891359
0.000891356
0.000891355
0.000889404
0.000889403
0.000889401
0.000889399
0.000889395
0.00088939
0.000889385
0.000889378
0.000889371
0.000889363
0.000889355
0.000889346
0.000889338
0.000889331
0.000889326
0.000889325
0.00088933
0.000889345
0.000889375
0.000889427
0.000889515
0.000889679
0.000889966
0.000890757
0.000891113
0.000891769
0.000892396
0.000893364
0.000894406
0.000895176
0.000895317
0.00089483
0.000894037
0.000893251
0.000892631
0.000892023
0.000891501
0.000890577
0.000890251
0.000890056
0.000889926
0.000889833
0.000889767
0.000889716
0.000889676
0.000889643
0.000889616
0.000889593
0.000889573
0.000889556
0.00088954
0.000889527
0.000889516
0.000889506
0.000889498
0.000889491
0.000889485
0.000889481
0.000889478
0.000889477
0.00088758
0.000887579
0.000887577
0.000887575
0.000887571
0.000887567
0.000887562
0.000887557
0.00088755
0.000887543
0.000887536
0.000887529
0.000887524
0.00088752
0.00088752
0.000887525
0.000887539
0.000887567
0.000887615
0.000887695
0.000887831
0.000888066
0.000888474
0.000889316
0.000889995
0.000890838
0.000892427
0.00089494
0.000898127
0.000900816
0.000901171
0.000899131
0.000896297
0.000893906
0.000892265
0.000891331
0.000890334
0.000889238
0.000888753
0.000888441
0.000888244
0.000888108
0.000888013
0.000887942
0.000887888
0.000887845
0.00088781
0.000887782
0.000887757
0.000887737
0.000887719
0.000887704
0.00088769
0.000887679
0.00088767
0.000887662
0.000887656
0.000887651
0.000887648
0.000887647
0.000885803
0.000885803
0.000885801
0.000885799
0.000885796
0.000885792
0.000885788
0.000885783
0.000885778
0.000885773
0.000885768
0.000885763
0.000885761
0.000885762
0.000885767
0.000885781
0.000885806
0.000885849
0.000885921
0.000886036
0.000886232
0.000886548
0.000887103
0.000888101
0.000889245
0.000890759
0.000894749
0.000901941
0.000914034
0.000927008
0.00092838
0.000917496
0.000905406
0.000897522
0.000893127
0.000891235
0.000889552
0.000888095
0.000887404
0.000886927
0.000886641
0.000886448
0.000886316
0.000886221
0.00088615
0.000886096
0.000886053
0.000886017
0.000885988
0.000885964
0.000885943
0.000885926
0.000885911
0.000885898
0.000885888
0.00088588
0.000885872
0.000885867
0.000885864
0.000885862
0.000884072
0.000884072
0.00088407
0.000884068
0.000884066
0.000884063
0.00088406
0.000884057
0.000884053
0.00088405
0.000884047
0.000884046
0.000884048
0.000884054
0.000884067
0.00088409
0.000884128
0.000884191
0.00088429
0.000884446
0.000884712
0.000885106
0.000885849
0.000887151
0.000888904
0.000892372
0.000901904
0.000924403
0.000435299
0.000275086
0.000278734
0.000436408
0.000935121
0.000907886
0.000896181
0.000891729
0.00088925
0.000887152
0.000886209
0.000885513
0.000885114
0.00088485
0.000884674
0.000884551
0.00088446
0.000884392
0.000884339
0.000884297
0.000884263
0.000884235
0.000884211
0.000884192
0.000884175
0.000884161
0.00088415
0.00088414
0.000884133
0.000884127
0.000884124
0.000884122
0.000882385
0.000882384
0.000882383
0.000882382
0.00088238
0.000882378
0.000882376
0.000882374
0.000882373
0.000882372
0.000882372
0.000882375
0.000882382
0.000882394
0.000882416
0.00088245
0.000882505
0.000882589
0.000882719
0.000882919
0.000883258
0.00088372
0.000884706
0.000886463
0.000889117
0.00089666
0.000917309
0.000545392
0.000222181
0.000102121
0.000107884
0.000177716
0.000449573
0.0009321
0.000902871
0.000892603
0.000889486
0.000886376
0.000885158
0.000884195
0.000883659
0.00088331
0.000883083
0.000882926
0.000882814
0.000882731
0.000882668
0.000882619
0.00088258
0.000882547
0.000882521
0.000882499
0.000882481
0.000882465
0.000882453
0.000882443
0.000882435
0.000882429
0.000882425
0.000882423
0.000880738
0.000880738
0.000880738
0.000880737
0.000880736
0.000880735
0.000880735
0.000880735
0.000880735
0.000880737
0.000880741
0.000880748
0.000880761
0.000880781
0.000880812
0.00088086
0.000880932
0.00088104
0.000881204
0.000881451
0.000881857
0.000882378
0.000883668
0.000885942
0.000890129
0.00090356
0.000938592
0.000639569
0.000234761
0.00012508
0.000353447
0.000930609
0.00091432
0.000893429
0.000890236
0.000885699
0.000884222
0.00088296
0.000882267
0.000881822
0.000881537
0.000881344
0.000881208
0.00088111
0.000881036
0.000880979
0.000880934
0.000880898
0.000880869
0.000880845
0.000880825
0.000880809
0.000880795
0.000880784
0.000880776
0.00088077
0.000880766
0.000880764
0.000879132
0.000879131
0.000879131
0.000879131
0.000879132
0.000879132
0.000879133
0.000879135
0.000879138
0.000879144
0.000879152
0.000879164
0.000879183
0.000879212
0.000879254
0.000879316
0.000879408
0.000879542
0.000879742
0.000880036
0.000880503
0.000881087
0.000882736
0.000885458
0.000891896
0.000910988
0.000956853
0.000668542
0.000347819
0.000904603
0.000236796
0.000441704
0.000922131
0.000929791
0.000893761
0.000891464
0.000885047
0.00088336
0.000881794
0.000880929
0.00088038
0.000880033
0.000879801
0.000879641
0.000879526
0.000879442
0.000879377
0.000879327
0.000879287
0.000879255
0.000879229
0.000879207
0.00087919
0.000879176
0.000879164
0.000879155
0.000879149
0.000879145
0.000879143
0.000877562
0.000877562
0.000877563
0.000877564
0.000877565
0.000877567
0.00087757
0.000877574
0.00087758
0.000877589
0.000877602
0.00087762
0.000877647
0.000877685
0.000877739
0.000877817
0.00087793
0.000878093
0.000878331
0.000878675
0.000879202
0.000879886
0.000881978
0.00088501
0.000893861
0.000915654
0.000967508
0.000891392
0.00155034
0.00824675
0.00997986
0.000308341
0.00067782
0.00104356
0.000947887
0.000894176
0.000893196
0.000884417
0.000882531
0.000880687
0.000879633
0.000878977
0.000878566
0.000878295
0.000878109
0.000877978
0.000877882
0.00087781
0.000877755
0.000877712
0.000877677
0.000877649
0.000877626
0.000877607
0.000877592
0.000877581
0.000877571
0.000877564
0.00087756
0.000877558
0.000876029
0.000876029
0.00087603
0.000876032
0.000876035
0.000876038
0.000876043
0.00087605
0.000876059
0.000876072
0.00087609
0.000876115
0.000876149
0.000876197
0.000876265
0.00087636
0.000876496
0.00087669
0.000876971
0.000877372
0.000877973
0.000878848
0.000881606
0.000884939
0.000896198
0.0009181
0.000987542
0.00106967
0.00509327
0.0363808
0.0453491
0.000413508
0.000977693
0.00108498
0.000967485
0.000896152
0.000895332
0.000883851
0.000881699
0.000879618
0.000878365
0.000877606
0.00087713
0.00087682
0.00087661
0.000876462
0.000876356
0.000876277
0.000876217
0.00087617
0.000876132
0.000876103
0.000876079
0.000876059
0.000876044
0.000876031
0.000876022
0.000876015
0.00087601
0.000876008
0.000874529
0.00087453
0.000874532
0.000874535
0.000874538
0.000874544
0.000874551
0.000874561
0.000874574
0.000874591
0.000874614
0.000874645
0.000874688
0.000874747
0.000874829
0.000874942
0.000875102
0.00087533
0.000875658
0.000876129
0.000876834
0.000878074
0.000881946
0.000885956
0.000902019
0.0009299
0.00108527
0.00267576
0.0371712
0.1
0.0430442
0.000623463
0.00110196
0.00111819
0.000984819
0.000900985
0.000897587
0.000883428
0.000880851
0.000878565
0.000877115
0.000876261
0.000875721
0.000875374
0.000875139
0.000874977
0.00087486
0.000874774
0.00087471
0.00087466
0.00087462
0.000874589
0.000874564
0.000874544
0.000874528
0.000874515
0.000874505
0.000874498
0.000874493
0.000874491
0.000873062
0.000873064
0.000873066
0.00087307
0.000873075
0.000873082
0.000873092
0.000873105
0.000873121
0.000873143
0.000873172
0.00087321
0.000873262
0.000873332
0.000873428
0.00087356
0.000873745
0.000874011
0.00087439
0.000874942
0.00087579
0.000877633
0.000883214
0.000888753
0.000915821
0.000962445
0.0017854
0.0111243
0.1
0.1
0.00903546
0.000893733
0.00121345
0.00114128
0.000995929
0.0009092
0.000899662
0.000883228
0.000879988
0.000877502
0.000875873
0.000874933
0.000874335
0.000873953
0.000873697
0.00087352
0.000873394
0.000873302
0.000873233
0.00087318
0.000873139
0.000873107
0.000873081
0.00087306
0.000873044
0.000873031
0.000873021
0.000873014
0.000873009
0.000873007
0.000871626
0.000871628
0.000871631
0.000871636
0.000871643
0.000871652
0.000871664
0.00087168
0.000871701
0.000871727
0.000871762
0.000871808
0.000871868
0.000871948
0.000872059
0.000872211
0.000872424
0.000872728
0.00087316
0.000873799
0.000874826
0.000877509
0.000885253
0.000893344
0.000936489
0.00102791
0.00294634
0.0299741
0.1
0.0252689
0.00255323
0.00115343
0.00130908
0.00115936
0.00100017
0.000920036
0.0009015
0.000883284
0.000879112
0.000876409
0.000874635
0.000873619
0.000872968
0.000872556
0.00087228
0.00087209
0.000871955
0.000871858
0.000871786
0.000871731
0.000871688
0.000871655
0.000871628
0.000871607
0.00087159
0.000871577
0.000871567
0.00087156
0.000871555
0.000871553
0.00087022
0.000870222
0.000870226
0.000870231
0.00087024
0.000870251
0.000870266
0.000870285
0.00087031
0.000870342
0.000870382
0.000870435
0.000870504
0.000870596
0.000870722
0.000870895
0.000871134
0.000871474
0.000871955
0.000872679
0.000873911
0.000877587
0.000887581
0.000898895
0.000957151
0.00111848
0.00377526
0.055106
0.031022
0.00559937
0.00145392
0.00143076
0.00143524
0.00119025
0.00100641
0.000931353
0.000902982
0.000883541
0.000878216
0.000875273
0.000873402
0.000872316
0.000871621
0.000871181
0.000870887
0.000870686
0.000870544
0.000870442
0.000870366
0.000870309
0.000870265
0.000870231
0.000870204
0.000870183
0.000870166
0.000870153
0.000870143
0.000870136
0.000870131
0.000870129
0.000868841
0.000868843
0.000868848
0.000868855
0.000868865
0.000868879
0.000868897
0.000868919
0.000868948
0.000868984
0.00086903
0.00086909
0.000869169
0.000869274
0.000869415