/*--------------------------------*- C++ -*----------------------------------*\
  =========                 |
  \\      /  F ield         | OpenFOAM: The Open Source CFD Toolbox
   \\    /   O peration     | Website:  https://openfoam.org
    \\  /    A nd           | Version:  12
     \\/     M anipulation  |
\*---------------------------------------------------------------------------*/
FoamFile
{
    format      ascii;
    class       volScalarField;
    location    "500";
    object      omega;
}
// * * * * * * * * * * * * * * * * * * * * * * * * * * * * * * * * * * * * * //

dimensions      [0 0 -1 0 0 0 0];

internalField   nonuniform List<scalar> 
16227
(
9.34702
9.34704
9.34704
9.34707
9.34706
9.3471
9.34709
9.34708
9.34707
9.34709
9.34713
9.34715
9.3472
9.3472
9.3472
9.3472
9.3472
9.3472
9.3472
9.3472
9.3472
9.3472
9.3472
9.3472
9.3472
9.3472
9.3472
9.34722
9.34722
9.3472
9.34721
9.3472
9.3472
9.3472
9.34721
9.3472
9.3472
9.3472
9.3472
9.3472
9.3472
9.3472
9.3472
9.3472
9.3472
9.3472
9.3472
9.34719
9.34717
9.34717
9.34717
9.34716
9.3471
9.3471
9.34706
9.34705
9.34707
9.34705
9.34703
9.34702
8.71806
8.71808
8.71807
8.7181
8.71811
8.71814
8.71813
8.71811
8.71812
8.71813
8.71818
8.7182
8.71834
8.71839
8.71841
8.71841
8.71841
8.7184
8.7184
8.7184
8.71842
8.71843
8.71843
8.71843
8.71843
8.71843
8.71843
8.71842
8.71841
8.71836
8.71841
8.71842
8.71843
8.71843
8.71842
8.71841
8.7184
8.7184
8.7184
8.7184
8.7184
8.7184
8.7184
8.71839
8.71839
8.71838
8.71838
8.71838
8.71838
8.71837
8.71834
8.71829
8.71818
8.71816
8.71813
8.7181
8.71814
8.71806
8.71808
8.71805
8.1662
8.16622
8.16623
8.16624
8.16624
8.16632
8.16628
8.16627
8.16627
8.16628
8.16633
8.16634
8.16658
8.16664
8.16665
8.16666
8.16666
8.16665
8.16667
8.16662
8.16666
8.16666
8.16666
8.16666
8.16666
8.16666
8.16665
8.16666
8.16665
8.16658
8.16664
8.16665
8.16665
8.16666
8.16666
8.16666
8.16666
8.16665
8.16664
8.16665
8.16665
8.16665
8.16664
8.16663
8.16663
8.16664
8.16662
8.16663
8.16662
8.16659
8.16656
8.16637
8.16629
8.16628
8.16626
8.16626
8.16629
8.1662
8.16621
8.16619
7.67833
7.67835
7.67835
7.67836
7.67837
7.67843
7.67843
7.6784
7.6784
7.67839
7.67844
7.67849
7.67875
7.67881
7.67883
7.67884
7.67884
7.67886
7.67879
7.67867
7.67878
7.67881
7.6788
7.67881
7.67881
7.67881
7.67881
7.6788
7.67878
7.6787
7.67878
7.6788
7.67879
7.6788
7.6788
7.67881
7.67882
7.67882
7.67883
7.67882
7.67883
7.67883
7.67882
7.67883
7.67882
7.67882
7.67882
7.67881
7.67882
7.67879
7.67867
7.67848
7.67838
7.6784
7.6784
7.67842
7.67839
7.67832
7.67832
7.6783
7.2441
7.24411
7.24411
7.24413
7.24413
7.24419
7.24421
7.24415
7.24416
7.24416
7.24419
7.24424
7.24448
7.2446
7.24461
7.2446
7.24461
7.24458
7.24437
7.24429
7.24448
7.24454
7.24454
7.24453
7.24451
7.24451
7.2445
7.2445
7.24448
7.24439
7.24448
7.24451
7.24453
7.24453
7.24454
7.24455
7.24457
7.24458
7.24459
7.2446
7.24461
7.24462
7.24462
7.24462
7.24462
7.24463
7.24463
7.24463
7.24462
7.24454
7.24431
7.2442
7.24412
7.24415
7.24417
7.24421
7.24415
7.24408
7.24408
7.24406
6.85526
6.85528
6.85527
6.85528
6.85528
6.85532
6.85536
6.8553
6.85528
6.85527
6.85527
6.8553
6.8554
6.85567
6.85573
6.85573
6.85572
6.85561
6.85537
6.85533
6.85554
6.85559
6.85557
6.85555
6.85554
6.85554
6.85553
6.85552
6.8555
6.85541
6.85551
6.85555
6.85557
6.85559
6.85561
6.85564
6.85567
6.85569
6.85571
6.85572
6.85574
6.85576
6.85577
6.85579
6.85579
6.8558
6.85581
6.85581
6.8558
6.85566
6.85543
6.85531
6.85527
6.85532
6.85536
6.85535
6.85529
6.85523
6.85523
6.85521
6.50515
6.50517
6.50516
6.50517
6.50516
6.50519
6.50523
6.5052
6.50515
6.50513
6.5051
6.50509
6.50518
6.50542
6.50554
6.50554
6.5055
6.5052
6.50507
6.50506
6.50527
6.50531
6.50528
6.50526
6.50524
6.50522
6.50521
6.50521
6.50519
6.5051
6.50521
6.50526
6.50529
6.50532
6.50536
6.5054
6.50544
6.50548
6.50552
6.50557
6.50559
6.50562
6.50565
6.50566
6.50569
6.5057
6.50571
6.50572
6.50565
6.50538
6.50525
6.50517
6.50517
6.50523
6.50524
6.50523
6.50518
6.50512
6.50513
6.50511
6.18836
6.18836
6.18835
6.18837
6.18835
6.18837
6.18839
6.18837
6.18832
6.18826
6.18822
6.18816
6.18819
6.1883
6.18856
6.18862
6.18854
6.18818
6.18806
6.18804
6.18825
6.18828
6.18823
6.1882
6.18816
6.18815
6.18814
6.18813
6.1881
6.18802
6.18815
6.18821
6.18827
6.18832
6.18837
6.18843
6.18849
6.18855
6.18861
6.18867
6.18873
6.18876
6.18881
6.18885
6.18888
6.18889
6.18891
6.18891
6.18878
6.18853
6.18841
6.18836
6.18841
6.18844
6.18843
6.18842
6.18838
6.18833
6.18834
6.18832
5.9004
5.9004
5.90039
5.90039
5.90037
5.90038
5.90039
5.90036
5.90032
5.90024
5.90017
5.90009
5.90007
5.90014
5.90044
5.9005
5.90032
5.89998
5.89986
5.89982
5.90001
5.90002
5.89996
5.89991
5.89987
5.89984
5.89982
5.89982
5.8998
5.89972
5.89986
5.89994
5.90002
5.90009
5.90017
5.90026
5.90034
5.90044
5.90052
5.90059
5.90067
5.90074
5.90079
5.90084
5.90088
5.90093
5.90094
5.90088
5.90061
5.90048
5.9004
5.90043
5.90044
5.90047
5.90047
5.90046
5.90043
5.90038
5.90038
5.90037
5.63756
5.63757
5.63755
5.63755
5.63751
5.63751
5.63752
5.63747
5.63742
5.63736
5.63725
5.63714
5.6371
5.63716
5.63738
5.63742
5.63708
5.63684
5.63673
5.63668
5.63684
5.63683
5.63676
5.63669
5.63663
5.63659
5.63658
5.63657
5.63656
5.63649
5.63665
5.63675
5.63684
5.63695
5.63705
5.63717
5.63729
5.63741
5.63753
5.63762
5.63772
5.63781
5.6379
5.63797
5.63803
5.63807
5.6381
5.638
5.63772
5.63761
5.6376
5.6376
5.63762
5.63765
5.63764
5.63764
5.6376
5.63757
5.63756
5.63756
5.39675
5.39675
5.39674
5.39672
5.39669
5.39667
5.39666
5.39659
5.39652
5.39645
5.39635
5.3962
5.39609
5.39607
5.39612
5.39627
5.39593
5.39572
5.39559
5.39551
5.3956
5.3956
5.39552
5.39542
5.39535
5.3953
5.39527
5.39527
5.39527
5.39521
5.39538
5.39552
5.39564
5.39577
5.39592
5.39607
5.39623
5.39638
5.39653
5.39667
5.39679
5.39691
5.39702
5.3971
5.39718
5.39723
5.39718
5.39704
5.39688
5.3968
5.39679
5.3968
5.39682
5.39685
5.39685
5.39684
5.39681
5.39677
5.39677
5.39677
5.17535
5.17534
5.17532
5.1753
5.17526
5.17524
5.17519
5.17513
5.17504
5.17494
5.17482
5.17467
5.17451
5.17442
5.17441
5.17449
5.17421
5.17398
5.1738
5.17368
5.1736
5.17368
5.17361
5.1735
5.17341
5.17335
5.17331
5.17331
5.17332
5.17327
5.17347
5.17363
5.17379
5.17396
5.17415
5.17434
5.17453
5.17473
5.17491
5.17509
5.17525
5.17539
5.17552
5.17564
5.17573
5.17575
5.17562
5.17555
5.17547
5.17539
5.1754
5.17541
5.17543
5.17546
5.17546
5.17546
5.17542
5.17538
5.17539
5.17538
4.97112
4.97112
4.97109
4.97106
4.97101
4.97097
4.97091
4.97083
4.97072
4.9706
4.97047
4.97028
4.97011
4.96992
4.9698
4.96971
4.96958
4.96939
4.96917
4.96899
4.96884
4.96892
4.96883
4.9687
4.96858
4.96851
4.96847
4.96847
4.96848
4.96846
4.96868
4.96887
4.96907
4.96929
4.96952
4.96976
4.97
4.97024
4.97048
4.97069
4.97089
4.97107
4.97122
4.97136
4.97145
4.97145
4.97134
4.97133
4.97124
4.97118
4.97119
4.97121
4.97123
4.97125
4.97126
4.97125
4.97122
4.97119
4.97119
4.97118
4.78218
4.78218
4.78215
4.78211
4.78205
4.782
4.78192
4.78182
4.78169
4.78155
4.78138
4.78117
4.78097
4.78076
4.78053
4.78038
4.78026
4.78004
4.77979
4.77957
4.77936
4.77942
4.77928
4.77911
4.77898
4.77888
4.77883
4.77883
4.77886
4.77885
4.77911
4.77934
4.77958
4.77985
4.78014
4.78043
4.78073
4.78102
4.7813
4.78157
4.78181
4.78202
4.78221
4.78235
4.78239
4.78237
4.78237
4.78236
4.7823
4.78227
4.78228
4.78229
4.78231
4.78233
4.78234
4.78234
4.7823
4.78228
4.78227
4.78226
4.6069
4.6069
4.60686
4.60681
4.60674
4.60667
4.60658
4.60646
4.60632
4.60614
4.60595
4.60571
4.60548
4.60522
4.60497
4.60477
4.60461
4.60434
4.60403
4.60375
4.6035
4.6035
4.60333
4.60312
4.60295
4.60284
4.60278
4.60278
4.60282
4.60283
4.60313
4.6034
4.6037
4.60403
4.60437
4.60473
4.60509
4.60545
4.60578
4.6061
4.60638
4.60663
4.60684
4.60697
4.60694
4.607
4.60704
4.60706
4.60702
4.607
4.60703
4.60704
4.60706
4.60708
4.60707
4.60707
4.60704
4.60702
4.60701
4.607
4.44387
4.44385
4.44381
4.44376
4.44368
4.4436
4.44349
4.44335
4.44318
4.44298
4.44275
4.44249
4.44222
4.44192
4.44163
4.44139
4.44116
4.44085
4.44048
4.44015
4.43985
4.43973
4.43956
4.43931
4.43911
4.43897
4.4389
4.43889
4.43894
4.43899
4.43932
4.43965
4.44001
4.4404
4.44082
4.44126
4.44168
4.44211
4.4425
4.44287
4.4432
4.44349
4.44373
4.44384
4.44385
4.44392
4.44398
4.44398
4.44397
4.44398
4.44402
4.44403
4.44405
4.44407
4.44407
4.44406
4.44402
4.444
4.444
4.44398
4.29186
4.29184
4.2918
4.29173
4.29165
4.29155
4.29143
4.29126
4.29107
4.29085
4.29059
4.29029
4.28998
4.28965
4.28931
4.28901
4.28874
4.28835
4.28793
4.28751
4.28714
4.28683
4.28671
4.28646
4.28622
4.28605
4.28595
4.28595
4.28602
4.2861
4.28647
4.28686
4.28729
4.28776
4.28826
4.28878
4.28929
4.28978
4.29025
4.29067
4.29106
4.29138
4.29157
4.29167
4.29178
4.2919
4.29198
4.29197
4.29197
4.29201
4.29204
4.29206
4.29207
4.29208
4.29208
4.29206
4.29203
4.292
4.292
4.29199
4.14981
4.14979
4.14975
4.14967
4.14957
4.14946
4.14932
4.14913
4.14892
4.14867
4.14839
4.14805
4.1477
4.14732
4.14693
4.14657
4.14624
4.14581
4.14531
4.14482
4.14436
4.14394
4.14379
4.1435
4.14321
4.143
4.14289
4.14288
4.14296
4.14308
4.14351
4.14397
4.14448
4.14504
4.14563
4.14624
4.14684
4.14742
4.14796
4.14845
4.14888
4.1492
4.14933
4.14953
4.1497
4.14985
4.14994
4.14995
4.14996
4.15
4.15003
4.15004
4.15004
4.15005
4.15005
4.15002
4.14999
4.14996
4.14995
4.14995
4.0168
4.01678
4.01672
4.01664
4.01653
4.0164
4.01625
4.01604
4.0158
4.01553
4.01521
4.01484
4.01444
4.01402
4.01357
4.01316
4.01275
4.01225
4.0117
4.01112
4.01058
4.0101
4.00981
4.00949
4.00915
4.00889
4.00875
4.00874
4.00884
4.009
4.00949
4.01003
4.01063
4.0113
4.01201
4.01272
4.01342
4.01409
4.0147
4.01525
4.01573
4.01607
4.01625
4.01648
4.01669
4.01684
4.0169
4.01693
4.01698
4.01702
4.01704
4.01705
4.01705
4.01705
4.01703
4.01701
4.01697
4.01694
4.01693
4.01692
3.89199
3.89196
3.89191
3.89182
3.89169
3.89156
3.89138
3.89116
3.8909
3.89059
3.89024
3.88984
3.8894
3.88893
3.88843
3.88793
3.88745
3.88689
3.88626
3.88561
3.88496
3.88437
3.88387
3.88357
3.8832
3.8829
3.88272
3.8827
3.88282
3.88303
3.88359
3.88423
3.88495
3.88574
3.88657
3.88741
3.88821
3.88898
3.88965
3.89023
3.89072
3.89108
3.89139
3.89167
3.89191
3.89205
3.89211
3.89216
3.89221
3.89225
3.89227
3.89227
3.89226
3.89225
3.89223
3.89219
3.89215
3.89212
3.89211
3.8921
3.77466
3.77464
3.77458
3.77448
3.77435
3.7742
3.77401
3.77376
3.77348
3.77314
3.77277
3.77232
3.77184
3.77132
3.77075
3.77016
3.76958
3.76898
3.76829
3.76756
3.76681
3.7661
3.76547
3.76511
3.76466
3.76429
3.76408
3.76404
3.76418
3.76444
3.76509
3.76585
3.7667
3.76763
3.76861
3.76958
3.77051
3.77135
3.7721
3.77275
3.77323
3.77367
3.77406
3.77439
3.77462
3.77474
3.77481
3.77488
3.77494
3.77497
3.77498
3.77496
3.77495
3.77492
3.77489
3.77485
3.7748
3.77477
3.77475
3.77474
3.66418
3.66416
3.66409
3.66399
3.66385
3.66368
3.66347
3.66321
3.6629
3.66255
3.66213
3.66166
3.66114
3.66056
3.65993
3.65927
3.6586
3.65794
3.65716
3.65632
3.65547
3.65466
3.6539
3.6534
3.65288
3.65242
3.65215
3.6521
3.65226
3.6526
3.65334
3.65424
3.65525
3.65635
3.65749
3.65862
3.65965
3.66059
3.66144
3.66217
3.66271
3.66321
3.66364
3.66398
3.6642
3.66431
3.6644
3.66447
3.66452
3.66453
3.66452
3.66449
3.66446
3.66443
3.66438
3.66434
3.66429
3.66424
3.66422
3.66421
3.55998
3.55995
3.55988
3.55977
3.55962
3.55944
3.55922
3.55894
3.55861
3.55823
3.55779
3.55728
3.55672
3.55609
3.55541
3.55467
3.55392
3.55315
3.55229
3.55136
3.5504
3.54944
3.54857
3.54784
3.54734
3.54678
3.54644
3.54637
3.54657
3.54697
3.54784
3.54891
3.55012
3.55141
3.55274
3.55404
3.5551
3.55614
3.55703
3.55784
3.55851
3.55908
3.55953
3.55985
3.56004
3.56017
3.56027
3.56034
3.56037
3.56036
3.56034
3.56029
3.56024
3.56019
3.56014
3.56008
3.56002
3.55997
3.55994
3.55993
3.46153
3.4615
3.46143
3.46131
3.46116
3.46097
3.46073
3.46044
3.46009
3.45969
3.45922
3.45867
3.45807
3.4574
3.45666
3.45584
3.45498
3.4541
3.45317
3.45215
3.45108
3.44999
3.44898
3.44835
3.49585
3.49529
3.49489
3.4948
3.49501
3.49545
3.4964
3.49757
3.4989
3.50032
3.50177
3.50316
3.45708
3.45755
3.45855
3.45944
3.46019
3.46079
3.46123
3.4615
3.46169
3.46183
3.46193
3.46197
3.46198
3.46195
3.4619
3.46184
3.46177
3.4617
3.46163
3.46157
3.4615
3.46144
3.46141
3.4614
3.36839
3.36836
3.36828
3.36817
3.368
3.3678
3.36756
3.36725
3.36689
3.36646
3.36596
3.36539
3.36475
3.36404
3.36324
3.36236
3.3614
3.3604
3.35936
3.35827
3.35708
3.35587
3.35502
3.39968
3.39712
3.3966
3.39609
3.39593
3.39616
3.39671
3.39782
3.39923
3.40082
3.40252
3.40423
3.40577
3.40908
3.36506
3.36558
3.36651
3.36728
3.36788
3.36829
3.36854
3.36871
3.36884
3.36891
3.36892
3.3689
3.36884
3.36877
3.36868
3.36859
3.3685
3.36842
3.36834
3.36826
3.3682
3.36816
3.36814
3.28016
3.28012
3.28004
3.27992
3.27975
3.27955
3.27929
3.27897
3.27859
3.27815
3.27763
3.27703
3.27636
3.2756
3.27476
3.27382
3.27278
3.27168
3.27053
3.26933
3.26803
3.26669
3.26596
3.30636
3.30385
3.32583
3.32526
3.32506
3.32532
3.32595
3.32722
3.32883
3.33066
3.33259
3.33453
3.31434
3.3172
3.2776
3.27769
3.27863
3.27938
3.27993
3.28028
3.28051
3.28067
3.28077
3.2808
3.28077
3.28071
3.28062
3.28052
3.2804
3.28029
3.28018
3.28008
3.27999
3.2799
3.27983
3.27979
3.27977
3.19645
3.19641
3.19633
3.1962
3.19603
3.19582
3.19556
3.19523
3.19484
3.19438
3.19385
3.19322
3.19252
3.19173
3.19085
3.18985
3.18875
3.18755
3.18627
3.18494
3.18354
3.18213
3.18157
3.21796
3.2155
3.2353
3.23477
3.23454
3.23487
3.2357
3.23714
3.23903
3.2412
3.24349
3.24567
3.22853
3.23046
3.19498
3.1946
3.19544
3.19612
3.19657
3.19688
3.19708
3.19721
3.19725
3.19722
3.19715
3.19705
3.19692
3.19678
3.19663
3.1965
3.19637
3.19625
3.19614
3.19604
3.19596
3.19591
3.19589
3.11693
3.11689
3.11681
3.11669
3.11651
3.1163
3.11603
3.1157
3.1153
3.11483
3.11428
3.11364
3.11292
3.1121
3.11117
3.11013
3.10898
3.10771
3.10632
3.10485
3.10333
3.10187
3.10155
3.13429
3.13181
3.14953
3.14916
3.14911
3.14975
3.15092
3.15268
3.15484
3.15726
3.15976
3.16225
3.14764
3.14877
3.1169
3.11598
3.11663
3.11717
3.11754
3.11778
3.11792
3.11797
3.11794
3.11785
3.11772
3.11756
3.11739
3.11722
3.11704
3.11687
3.11672
3.11658
3.11646
3.11635
3.11626
3.11621
3.11618
3.04131
3.04127
3.04119
3.04107
3.04089
3.04068
3.04041
3.04007
3.03967
3.03919
3.03863
3.03799
3.03725
3.03641
3.03546
3.03438
3.03318
3.03185
3.03039
3.02882
3.02718
3.02568
3.02561
3.05509
3.05275
3.06864
3.06848
3.06941
3.07117
3.07344
3.0757
3.07773
3.07976
3.08189
3.08427
3.07192
3.07203
3.04313
3.04156
3.0419
3.04229
3.04254
3.04267
3.0427
3.04265
3.04253
3.04237
3.04217
3.04196
3.04174
3.04153
3.04132
3.04112
3.04094
3.04079
3.04065
3.04053
3.04043
3.04037
3.04034
2.96931
2.96928
2.96919
2.96907
2.9689
2.96868
2.96841
2.96808
2.96768
2.9672
2.96664
2.96599
2.96524
2.96439
2.96342
2.96232
2.96109
2.95972
2.95822
2.95659
2.95489
2.95336
2.95354
2.98016
2.97829
2.99253
2.9941
2.99776
3.00401
3.01067
3.01399
3.01347
3.01187
3.01142
3.0121
3.00141
3.00011
2.97346
2.9712
2.97112
2.97125
2.97129
2.97125
2.97114
2.97097
2.97074
2.9705
2.97023
2.96996
2.96969
2.96943
2.96919
2.96896
2.96876
2.96858
2.96843
2.96829
2.96819
2.96812
2.96809
2.90069
2.90065
2.90057
2.90045
2.90028
2.90007
2.8998
2.89947
2.89907
2.8986
2.89805
2.89739
2.89665
2.8958
2.89482
2.89372
2.89247
2.89109
2.88956
2.88791
2.88621
2.88472
2.88513
2.90931
2.90835
2.92239
2.92857
2.94209
2.96836
2.99935
3.00594
2.98598
2.96425
2.95201
2.94694
2.9362
2.93298
2.90771
2.90469
2.90401
2.90375
2.90352
2.90326
2.90297
2.90265
2.90232
2.90198
2.90163
2.9013
2.90098
2.90068
2.90039
2.90014
2.89991
2.89971
2.89954
2.8994
2.89929
2.89921
2.89919
2.8352
2.83517
2.83509
2.83497
2.83481
2.8346
2.83435
2.83402
2.83363
2.83317
2.83263
2.83199
2.83125
2.83041
2.82944
2.82834
2.8271
2.82572
2.8242
2.82257
2.82093
2.81953
2.82033
2.84261
2.84279
2.85994
2.87788
2.92728
3.07371
3.32632
3.34268
3.12403
2.97244
2.9128
2.89123
2.87588
2.87057
2.84574
2.84177
2.84028
2.83954
2.83895
2.83843
2.83794
2.83747
2.83701
2.83657
2.83615
2.83575
2.83537
2.83503
2.83471
2.83443
2.83418
2.83396
2.83378
2.83362
2.8335
2.83342
2.83339
2.77266
2.77262
2.77255
2.77243
2.77228
2.77208
2.77184
2.77152
2.77115
2.7707
2.77017
2.76955
2.76884
2.76801
2.76706
2.76599
2.76477
2.76342
2.76194
2.76035
2.7588
2.75752
2.75885
2.78002
2.78221
2.80716
2.84974
3.03096
3.87636
8.30643
7.89534
4.45863
3.16326
2.91128
2.84794
2.81997
2.81293
2.78708
2.78209
2.77965
2.77833
2.77733
2.77652
2.77582
2.77518
2.77459
2.77405
2.77355
2.77309
2.77266
2.77227
2.77192
2.77161
2.77134
2.77111
2.77091
2.77074
2.77062
2.77054
2.77051
2.71285
2.71282
2.71275
2.71265
2.7125
2.71231
2.71208
2.71178
2.71143
2.711
2.7105
2.7099
2.70921
2.70842
2.70751
2.70646
2.70529
2.70399
2.70257
2.70105
2.69962
2.69845
2.70045
2.72101
2.72677
2.76392
2.84399
3.32996
11.161
15.2951
3.76377
2.95932
2.81946
2.76701
2.75943
2.73124
2.72525
2.72178
2.71982
2.71839
2.71727
2.71635
2.71554
2.71483
2.7142
2.71362
2.71309
2.71262
2.7122
2.71182
2.71149
2.7112
2.71096
2.71075
2.71058
2.71045
2.71037
2.71034
2.65562
2.65559
2.65553
2.65543
2.65529
2.65512
2.6549
2.65463
2.65429
2.65389
2.65342
2.65285
2.6522
2.65145
2.65058
2.6496
2.64849
2.64725
2.64591
2.64449
2.64317
2.64213
2.64488
2.66493
2.67584
2.72462
2.84991
4.17266
67.7601
96.5833
25.3321
4.34384
3.02513
2.80214
2.71557
2.70951
2.67777
2.67094
2.66647
2.66386
2.66198
2.66055
2.6594
2.65844
2.65761
2.65688
2.65623
2.65565
2.65513
2.65468
2.65427
2.65392
2.65361
2.65336
2.65314
2.65296
2.65283
2.65274
2.65271
2.6008
2.60077
2.60071
2.60063
2.6005
2.60034
2.60014
2.59989
2.59958
2.59921
2.59878
2.59825
2.59765
2.59695
2.59614
2.59522
2.59418
2.59304
2.5918
2.59049
2.58927
2.58846
2.59215
2.61163
2.62771
2.68144
2.85432
6.87895
59.5132
22.6934
11.7299
17.0339
4.48328
3.06951
2.79086
2.66618
2.66259
2.62629
2.61876
2.6134
2.61014
2.60784
2.60613
2.60477
2.60366
2.60272
2.60191
2.60119
2.60057
2.60002
2.59953
2.5991
2.59873
2.59841
2.59814
2.59792
2.59773
2.59759
2.59751
2.59747
2.54824
2.54821
2.54816
2.54808
2.54797
2.54783
2.54765
2.54743
2.54715
2.54682
2.54642
2.54594
2.54539
2.54475
2.54401
2.54317
2.54222
2.54117
2.54005
2.53886
2.53778
2.53742
2.54251
2.56153
2.58244
2.63576
2.88245
7.22765
43.2967
7.97665
4.24612
12.2512
4.34499
3.08433
2.78122
2.62149
2.61778
2.57658
2.56833
2.56229
2.55843
2.55576
2.5538
2.55227
2.55103
2.55
2.54912
2.54835
2.54769
2.54711
2.5466
2.54615
2.54576
2.54544
2.54516
2.54493
2.54474
2.5446
2.54451
2.54447
2.4978
2.49778
2.49773
2.49767
2.49757
2.49745
2.49729
2.4971
2.49685
2.49656
2.4962
2.49578
2.49529
2.49471
2.49405
2.49329
2.49242
2.49146
2.49048
2.48949
2.48871
2.48917
2.49666
2.51612
2.54674
2.61326
3.16006
15.0353
6.28696
1.70245
2.11361
8.74301
4.09647
3.07246
2.76424
2.58367
2.57401
2.52852
2.5194
2.51287
2.50852
2.50558
2.50341
2.50174
2.50041
2.4993
2.49837
2.49757
2.49688
2.49627
2.49575
2.49529
2.49489
2.49456
2.49427
2.49404
2.49385
2.49371
2.49362
2.49358
2.44935
2.44934
2.4493
2.44924
2.44917
2.44906
2.44894
2.44877
2.44856
2.44831
2.448
2.44764
2.4472
2.44669
2.44609
2.44539
2.44462
2.44384
2.44305
2.44233
2.44194
2.44374
2.45485
2.47666
2.52978
2.63805
4.71764
11.1865
1.45981
0.936525
3.59472
6.60318
3.84554
3.03822
2.73142
2.5527
2.53041
2.48218
2.47184
2.46495
2.46024
2.4571
2.4548
2.45305
2.45166
2.4505
2.44954
2.44871
2.448
2.44739
2.44685
2.44639
2.44599
2.44565
2.44536
2.44513
2.44494
2.44479
2.44471
2.44467
2.40279
2.40278
2.40275
2.4027
2.40264
2.40256
2.40246
2.40233
2.40216
2.40195
2.4017
2.40139
2.401
2.40053
2.4
2.39944
2.39884
2.39823
2.39765
2.3972
2.39727
2.4009
2.41655
2.44284
2.52816
2.71469
6.36362
4.7203
0.834058
1.65999
4.91828
5.34769
3.66335
2.99466
2.68339
2.52681
2.48671
2.43736
2.42552
2.41833
2.41342
2.41019
2.40783
2.40607
2.40465
2.40349
2.40251
2.40167
2.40096
2.40034
2.3998
2.39934
2.39894
2.3986
2.39832
2.39808
2.39789
2.39775
2.39766
2.39763
2.35799
2.35799
2.35797
2.35794
2.35789
2.35784
2.35776
2.35766
2.35753
2.35737
2.35716
2.35689
2.35656
2.35618
2.35577
2.35534
2.35488
2.35445
2.35406
2.35389
2.35448
2.3602
2.38047
2.41252
2.52675
2.81512
6.69591
2.44347
1.66467
3.13744
5.29576
4.68195
3.60334
2.97253
2.63911
2.50102
2.44299
2.39414
2.38044
2.37298
2.3681
2.36486
2.36247
2.36069
2.35929
2.35814
2.35717
2.35634
2.35563
2.35502
2.35449
2.35403
2.35364
2.35331
2.35303
2.3528
2.35261
2.35247
2.35238
2.35235
2.31486
2.31486
2.31485
2.31483
2.31481
2.31478
2.31473
2.31467
2.31458
2.31445
2.31426
2.31404
2.31381
2.31354
2.31325
2.31294
2.31261
2.31234
2.31214
2.31223
2.31332
2.32111
2.34527
2.38278
2.51506
2.89155
6.52681
1.609
1.14088
4.43901
5.38972
4.52705
3.85952
3.06453
2.62132
2.46752
2.39945
2.35206
2.33661
2.32898
2.32417
2.32098
2.31865
2.31687
2.31547
2.31435
2.31343
2.31263
2.31194
2.31134
2.31083
2.31038
2.31
2.30967
2.3094
2.30917
2.30899
2.30886
2.30877
2.30874
2.27331
2.27332
2.27331
2.27331
2.2733
2.2733
2.27328
2.27325
2.27319
2.27308
2.27295
2.27282
2.27267
2.2725
2.27231
2.27211
2.27191
2.27179
2.27175
2.27204
2.2736
2.28318
2.31004
2.35183
2.49286
2.94825
6.26073
1.53808
0.70376
2.42405
5.2548
5.41746
4.77718
3.8492
2.66266
2.41928
2.3566
2.31073
2.29391
2.28627
2.28168
2.27848
2.27626
2.27455
2.27319
2.27209
2.2712
2.27045
2.26979
2.26922
2.26872
2.26829
2.26792
2.26761
2.26734
2.26713
2.26695
2.26682
2.26673
2.26671
2.23325
2.23326
2.23326
2.23328
2.23329
2.2333
2.23331
2.2333
2.23327
2.23322
2.23317
2.23311
2.23304
2.23295
2.23285
2.23276
2.23268
2.23269
2.23277
2.23322
2.2352
2.24609
2.27441
2.31908
2.46365
3.04049
6.23184
1.72922
0.885084
1.08563
2.91644
4.57374
4.99969
4.99931
2.83715
2.37497
2.31452
2.26996
2.25237
2.24481
2.24056
2.23741
2.23524
2.23362
2.23233
2.23128
2.23042
2.22971
2.2291
2.22857
2.22809
2.22768
2.22733
2.22703
2.22678
2.22657
2.2264
2.22627
2.22619
2.22617
2.19459
2.1946
2.19462
2.19464
2.19467
2.19471
2.19472
2.19474
2.19476
2.19478
2.19479
2.1948
2.1948
2.1948
2.19479
2.19479
2.19483
2.19496
2.19513
2.19573
2.19801
2.20971
2.23846
2.28467
2.43042
3.17935
6.89541
2.28467
0.999084
0.612677
1.26562
2.72239
4.41646
5.36095
3.1133
2.37973
2.27293
2.22979
2.21205
2.20464
2.20074
2.1977
2.19564
2.19405
2.19281
2.1918
2.19103
2.19036
2.1898
2.18931
2.18887
2.18848
2.18815
2.18786
2.18762
2.18743
2.18727
2.18715
2.18707
2.18705
2.15726
2.15728
2.15731
2.15734
2.15739
2.15743
2.15748
2.15754
2.15761
2.15768
2.15775
2.15782
2.15789
2.15796
2.15804
2.15814
2.15827
2.15849
2.15874
2.15947
2.16198
2.17413
2.20254
2.24945
2.39639
3.30508
7.70095
3.18211
1.02241
0.741976
0.575732
1.48852
3.66273
5.22852
3.28812
2.43954
2.2315
2.19044
2.17302
2.16578
2.16221
2.15928
2.15735
2.15583
2.15467
2.15371
2.15295
2.15235
2.15182
2.15137
2.15097
2.15062
2.15031
2.15004
2.14982
2.14963
2.14948
2.14937
2.14929
2.14927
2.12119
2.12122
2.12125
2.1213
2.12135
2.12142
2.1215
2.1216
2.12171
2.12183
2.12196
2.12209
2.12223
2.12238
2.12254
2.12273
2.12293
2.12323
2.12358
2.12443
2.12709
2.13954
2.16727
2.21453
2.36243
3.43754
7.71913
3.97034
1.3585
0.848333
0.552858
1.07382
3.25279
5.03201
3.33091
2.50951
2.19073
2.15216
2.13533
2.1282
2.12495
2.1221
2.12032
2.11888
2.1178
2.11691
2.11618
2.11559
2.11512
2.11471
2.11434
2.11403
2.11374
2.1135
2.11329
2.11311
2.11297
2.11286
2.1128
2.11278
2.08632
2.08635
2.08639
2.08644
2.08651
2.08661
2.08673
2.08686
2.08701
2.08718
2.08735
2.08754
2.08775
2.08798
2.08822
2.08849
2.08876
2.08917
2.08962
2.09056
2.09338
2.10617
2.13323
2.18093
2.33577
3.59497
7.44056
3.95751
1.41242
0.843745
0.559305
1.14317
3.47432
4.94866
3.3128
2.54919
2.15116
2.11506
2.09898
2.09189
2.08892
2.08615
2.0845
2.08313
2.08213
2.08131
2.08065
2.08009
2.07963
2.07926
2.07893
2.07864
2.07839
2.07817
2.07798
2.07781
2.07768
2.07758
2.07752
2.0775
2.05258
2.05262
2.05266
2.05272
2.05282
2.05294
2.05309
2.05325
2.05344
2.05365
2.05387
2.05412
2.05439
2.05469
2.05501
2.05536
2.05573
2.05626
2.05679
2.05786
2.06088
2.07416
2.10067
2.14893
2.3255
3.74854
6.87995
3.16297
1.03181
0.719552
0.65193
1.82831
4.30902
5.00202
3.28939
2.54518
2.11303
2.07911
2.06396
2.05683
2.05407
2.0514
2.04985
2.04856
2.04764
2.04688
2.04627
2.04576
2.04533
2.04496
2.04468
2.04442
2.04419
2.044
2.04382
2.04367
2.04355
2.04346
2.0434
2.04339
2.01992
2.01996
2.02001
2.02009
2.0202
2.02034
2.02051
2.02071
2.02093
2.02118
2.02146
2.02176
2.0221
2.02247
2.02286
2.02328
2.02376
2.02441
2.02506
2.02627
2.02957
2.04347
2.06932
2.11825
2.32703
3.98007
5.77542
2.11847
0.84562
0.609736
1.21402
3.01933
5.22345
5.04569
3.29444
2.50795
2.07638
2.04416
2.03023
2.02305
2.02039
2.0178
2.01634
2.01512
2.01426
2.01356
2.01301
2.01255
2.01215
2.01181
2.01153
2.01131
2.0111
2.01093
2.01078
2.01064
2.01053
2.01044
2.01039
2.01038
1.98828
1.98832
1.98838
1.98847
1.9886
1.98876
1.98896
1.98919
1.98945
1.98974
1.99006
1.99042
1.99081
1.99125
1.99171
1.99222
1.99282
1.99359
1.99435
1.99575
1.99936
2.01393
2.03874
2.08822
2.33612
4.16129
4.89888
1.59431
0.741542
0.925994
2.14295
4.29482
5.71155
4.96899
3.33016
2.46194
2.04211
2.01019
1.99776
1.99054
1.98784
1.98533
1.98392
1.98278
1.98197
1.98133
1.98082
1.9804
1.98004
1.97974
1.97947
1.97925
1.97907
1.97892
1.97878
1.97867
1.97856
1.97848
1.97843
1.97843
1.95761
1.95766
1.95773
1.95783
1.95797
1.95816
1.95838
1.95863
1.95892
1.95925
1.95962
1.96002
1.96047
1.96097
1.9615
1.96212
1.96282
1.96372
1.96462
1.96621
1.97015
1.9853
2.00867
2.05822
2.33383
4.23143
4.48976
1.48426
0.787858
1.31267
2.92604
5.06436
5.69985
4.81232
3.41303
2.44051
2.01336
1.97751
1.9664
1.95929
1.9564
1.95396
1.95257
1.95149
1.95072
1.95013
1.94966
1.94928
1.94895
1.94868
1.94844
1.94823
1.94805
1.94792
1.9478
1.9477
1.94761
1.94753
1.94749
1.94748
1.92788
1.92793
1.928
1.92811
1.92827
1.92847
1.92871
1.92899
1.92931
1.92968
1.93009
1.93054
1.93104
1.93158
1.9322
1.93293
1.93373
1.93475
1.9358
1.93757
1.94182
1.95739
1.97915
2.02818
2.31492
4.23494
4.45639
1.5792
0.887168
1.45088
3.06218
5.11465
5.58188
4.84982
3.59231
2.45597
1.99533
1.94734
1.93605
1.92926
1.92605
1.92366
1.92225
1.92121
1.92048
1.91993
1.91949
1.91914
1.91885
1.9186
1.91838
1.91819
1.91802
1.91788
1.91778
1.91769
1.91761
1.91755
1.9175
1.9175
1.89902
1.89908
1.89916
1.89928
1.89945
1.89967
1.89993
1.90023
1.90058
1.90098
1.90142
1.90192
1.90247
1.90307
1.90377
1.90458
1.90548
1.90661
1.90783
1.90975
1.91431
1.9301
1.95052
1.99883
2.29003
4.17419
4.70394
1.90243
0.977684
1.31688
2.52968
4.41122
5.24851
4.97491
3.9398
2.53098
1.99061
1.92175
1.90681
1.90033
1.89677
1.89438
1.89294
1.89193
1.89122
1.89069
1.89028
1.88995
1.88968
1.88945
1.88925
1.88907
1.88892
1.88879
1.88868
1.8886
1.88853
1.88848
1.88844
1.88844
1.87101
1.87107
1.87115
1.87129
1.87147
1.8717
1.87198
1.8723
1.87268
1.8731
1.87359
1.87412
1.8747
1.87537
1.87614
1.87703
1.87803
1.87926
1.88063
1.88268
1.88752
1.90335
1.92279
1.97041
2.25947
4.08622
5.17908
2.48153
1.19397
1.2204
1.93818
3.29164
4.53812
4.9145
4.25635
2.68032
1.99882
1.90189
1.87913
1.87239
1.86852
1.86609
1.86459
1.86359
1.86288
1.86237
1.86198
1.86167
1.86142
1.8612
1.86102
1.86085
1.86071
1.86059
1.86048
1.8604
1.86034
1.86029
1.86026
1.86026
1.8438
1.84386
1.84395
1.84409
1.84428
1.84453
1.84482
1.84517
1.84557
1.84602
1.84653
1.8471
1.84772
1.84845
1.84928
1.85024
1.85133
1.85265
1.85416
1.8563
1.86138
1.87708
1.89596
1.94267
2.22476
4.43057
6.29835
3.347
1.63066
1.30785
1.60528
2.36905
3.54514
4.54707
4.30926
2.85608
2.02009
1.88708
1.85347
1.84541
1.84124
1.83875
1.83716
1.83616
1.83544
1.83494
1.83456
1.83426
1.83402
1.83381
1.83364
1.83348
1.83335
1.83323
1.83313
1.83305
1.83298
1.83294
1.83292
1.83293
1.81735
1.81742
1.81752
1.81767
1.81786
1.81812
1.81843
1.81879
1.81921
1.81969
1.82022
1.82081
1.82149
1.82227
1.82315
1.82416
1.82533
1.82672
1.82837
1.83057
1.83582
1.85128
1.86967
1.93124
2.18279
4.23158
6.116
3.39865
1.65503
1.14595
1.21318
1.6696
2.69964
4.12114
4.33696
3.00547
2.00455
1.87689
1.83
1.81939
1.81489
1.81229
1.81062
1.8096
1.80887
1.80836
1.80798
1.80769
1.80745
1.80725
1.80708
1.80693
1.8068
1.80669
1.8066
1.80652
1.80645
1.80641
1.80639
1.8064
1.79165
1.79172
1.79182
1.79197
1.79218
1.79244
1.79276
1.79314
1.79358
1.79407
1.79463
1.79525
1.79596
1.79678
1.7977
1.79876
1.8
1.80145
1.8032
1.80544
1.8108
1.82592
1.84418
1.90379
2.45066
4.34382
4.90084
2.76006
1.38495
0.903921
0.852267
1.17643
2.238
3.80396
3.94611
2.82002
2.0508
1.87108
1.80867
1.79436
1.7894
1.78669
1.78493
1.78387
1.78311
1.7826
1.78221
1.78191
1.78168
1.78148
1.78131
1.78116
1.78104
1.78093
1.78083
1.78075
1.78069
1.78064
1.78063
1.78064
1.76664
1.76671
1.76682
1.76697
1.76719
1.76746
1.76779
1.76818
1.76863
1.76914
1.76971
1.77036
1.77111
1.77195
1.77292
1.77401
1.7753
1.77679
1.77863
1.78089
1.78628
1.80101
1.81941
1.877
2.39056
4.08184
4.37816
2.44617
1.20149
0.717548
0.606681
0.833995
1.78829
3.45486
3.82606
2.85178
2.08944
1.86794
1.7893
1.77032
1.76472
1.76188
1.76004
1.75893
1.75814
1.75761
1.75721
1.7569
1.75666
1.75646
1.75629
1.75614
1.75602
1.75591
1.75582
1.75574
1.75567
1.75562
1.7556
1.75562
1.7423
1.74238
1.74248
1.74265
1.74287
1.74315
1.74349
1.74389
1.74435
1.74487
1.74545
1.74612
1.7469
1.74776
1.74876
1.74987
1.75121
1.75273
1.75463
1.75689
1.76225
1.77652
1.79523
1.85087
2.33137
3.84526
3.95217
2.19379
1.0578
0.582362
0.440196
0.605933
1.4554
3.14403
3.69496
2.86101
2.11945
1.86606
1.77156
1.74723
1.7408
1.73782
1.73591
1.73474
1.73391
1.73336
1.73294
1.73262
1.73237
1.73217
1.73199
1.73184
1.73171
1.7316
1.73151
1.73143
1.73136
1.73132
1.73129
1.73131
1.71861
1.71869
1.7188
1.71896
1.71919
1.71947
1.71982
1.72022
1.72069
1.72122
1.72182
1.72251
1.7233
1.72418
1.7252
1.72633
1.7277
1.72922
1.73117
1.73341
1.73869
1.75248
1.77153
1.82528
2.27402
3.63226
3.60178
1.99077
0.946734
0.501131
0.371146
0.454853
1.21445
2.87381
3.56045
2.85293
2.14082
1.86417
1.75496
1.72501
1.7176
1.71448
1.71249
1.71126
1.7104
1.70981
1.70937
1.70904
1.70878
1.70856
1.70838
1.70823
1.70809
1.70798
1.70788
1.7078
1.70774
1.70768
1.70766
1.70767
1.69553
1.69562
1.69573
1.69589
1.69612
1.69641
1.69676
1.69717
1.69765
1.69818
1.69879
1.69949
1.70029
1.70118
1.70221
1.70335
1.70474
1.70627
1.70823
1.71046
1.71561
1.72889
1.74825
1.80015
2.21895
3.4406
3.31086
1.82691
0.861349
0.505739
0.387805
0.355586
1.04256
2.64163
3.42752
2.83211
2.15403
1.86123
1.73906
1.70355
1.69507
1.69179
1.68974
1.68846
1.68755
1.68694
1.68647
1.68613
1.68585
1.68562
1.68543
1.68527
1.68513
1.68501
1.68491
1.68482
1.68476
1.6847