/*--------------------------------*- C++ -*----------------------------------*\
  =========                 |
  \\      /  F ield         | OpenFOAM: The Open Source CFD Toolbox
   \\    /   O peration     | Website:  https://openfoam.org
    \\  /    A nd           | Version:  12
     \\/     M anipulation  |
\*---------------------------------------------------------------------------*/
FoamFile
{
    format      ascii;
    class       volScalarField;
    location    "500";
    object      p;
}
// * * * * * * * * * * * * * * * * * * * * * * * * * * * * * * * * * * * * * //

dimensions      [0 2 -2 0 0 0 0];

internalField   nonuniform List<scalar> 
16227
(
0.0904929
0.0905826
0.0907609
0.0910261
0.0913754
0.0918051
0.0923108
0.0928869
0.0935267
0.0942228
0.0949667
0.095749
0.0965594
0.0973869
0.0982196
0.0990452
0.0998505
0.100622
0.101347
0.102012
0.102603
0.103108
0.103517
0.103818
0.104003
0.104065
0.103999
0.103802
0.103473
0.103015
0.102431
0.101727
0.100913
0.0999963
0.0989902
0.0979068
0.0967594
0.0955618
0.094328
0.0930718
0.0918064
0.0905445
0.0892979
0.0880774
0.0868927
0.0857527
0.084665
0.083636
0.0826715
0.081776
0.0809535
0.080207
0.0795389
0.0789511
0.0784452
0.0780223
0.0776833
0.0774286
0.0772587
0.0771735
0.0904269
0.0905173
0.0906969
0.0909641
0.0913161
0.0917492
0.0922591
0.0928399
0.0934853
0.0941875
0.0949383
0.0957282
0.0965468
0.097383
0.098225
0.0990601
0.0998752
0.100657
0.101392
0.102066
0.102666
0.10318
0.103596
0.103904
0.104094
0.104159
0.104095
0.103899
0.103569
0.103108
0.102519
0.101809
0.100987
0.100062
0.0990469
0.0979537
0.0967961
0.0955882
0.0943443
0.0930782
0.0918035
0.0905329
0.0892783
0.0880506
0.0868595
0.0857139
0.0846213
0.0835883
0.0826203
0.081722
0.0808972
0.0801488
0.0794792
0.0788903
0.0783837
0.0779603
0.0776209
0.077366
0.0771959
0.0771107
0.0902814
0.0903732
0.0905558
0.0908275
0.0911856
0.0916263
0.0921452
0.0927367
0.0933943
0.0941103
0.0948763
0.0956829
0.0965197
0.0973753
0.0982377
0.099094
0.0999309
0.100735
0.101491
0.102186
0.102807
0.10334
0.103773
0.104094
0.104296
0.10437
0.10431
0.104114
0.103781
0.103313
0.102714
0.101991
0.101152
0.100209
0.0991725
0.0980572
0.0968769
0.0956461
0.0943796
0.0930917
0.0917963
0.0905064
0.089234
0.0879903
0.0867851
0.085627
0.0845237
0.0834816
0.082506
0.0816016
0.0807717
0.0800192
0.0793464
0.0787552
0.078247
0.0778224
0.0774822
0.0772267
0.0770563
0.076971
0.0900372
0.0901315
0.0903191
0.0905983
0.0909665
0.0914199
0.0919541
0.0925636
0.0932417
0.0939809
0.0947725
0.0956075
0.0964749
0.0973631
0.0982599
0.0991521
0.100026
0.100867
0.10166
0.102391
0.103046
0.103611
0.104072
0.104418
0.104639
0.104726
0.104675
0.10448
0.104142
0.103662
0.103045
0.102298
0.101431
0.100455
0.0993838
0.0982309
0.0970118
0.095742
0.0944371
0.0931122
0.0917816
0.090459
0.0891567
0.087886
0.0866569
0.085478
0.0843568
0.0832995
0.0823115
0.0813967
0.0805585
0.0797993
0.0791213
0.0785265
0.0780156
0.077589
0.0772475
0.0769912
0.0768202
0.0767346
0.0896953
0.089793
0.0899876
0.0902773
0.0906594
0.0911304
0.0916857
0.0923199
0.0930266
0.0937979
0.0946254
0.0954996
0.0964096
0.0973434
0.0982884
0.0992308
0.100156
0.101049
0.101895
0.102677
0.103381
0.10399
0.104492
0.104872
0.105121
0.105228
0.105187
0.104995
0.104649
0.104153
0.10351
0.10273
0.101823
0.100801
0.0996795
0.0984733
0.0971992
0.0958744
0.0945153
0.0931383
0.0917585
0.0903902
0.0890462
0.0877381
0.086476
0.0852684
0.0841226
0.0830447
0.0820396
0.0811109
0.0802614
0.0794932
0.0788088
0.0782092
0.0776948
0.0772658
0.0769226
0.0766652
0.0764936
0.0764077
0.0892571
0.0893591
0.0895623
0.0898651
0.0902646
0.0907576
0.0913395
0.0920049
0.0927474
0.0935594
0.0944321
0.095356
0.09632
0.097312
0.0983184
0.0993252
0.100317
0.101277
0.10219
0.103039
0.103806
0.104474
0.105029
0.105455
0.105739
0.105873
0.105847
0.105657
0.105303
0.104785
0.10411
0.103287
0.102327
0.101245
0.100058
0.0987825
0.0974373
0.0960411
0.0946122
0.0931681
0.0917253
0.0902987
0.0889019
0.0875465
0.0862428
0.0849994
0.0838231
0.0827197
0.0816937
0.080748
0.0798847
0.0791062
0.0784144
0.0778092
0.0772908
0.0768592
0.0765143
0.0762557
0.0760834
0.0759973
0.0887183
0.0888255
0.089039
0.0893574
0.0897779
0.0902973
0.090911
0.091614
0.0923997
0.0932607
0.0941882
0.0951723
0.0962024
0.0972654
0.0983474
0.0994333
0.100507
0.101551
0.102548
0.103479
0.104326
0.105068
0.10569
0.106174
0.106505
0.106672
0.106666
0.106481
0.106115
0.10557
0.104854
0.103976
0.10295
0.101793
0.100523
0.0991604
0.097726
0.0962407
0.094725
0.0931979
0.0916774
0.0901794
0.088718
0.0873054
0.0859518
0.0846655
0.0834531
0.0823199
0.0812694
0.080304
0.0794253
0.0786356
0.0779357
0.0773247
0.0768022
0.076368
0.0760214
0.0757618
0.0755891
0.0755027
0.0880727
0.0881859
0.0884115
0.088748
0.0891928
0.0897429
0.090394
0.0911408
0.0919773
0.092896
0.0938882
0.0949439
0.0960522
0.0971998
0.0983723
0.0995536
0.100726
0.101872
0.102971
0.104004
0.104948
0.105783
0.106488
0.107043
0.107433
0.107643
0.107662
0.107482
0.107103
0.106525
0.105757
0.104812
0.103704
0.102452
0.10108
0.0996098
0.0980656
0.0964711
0.0948494
0.0932218
0.0916077
0.0900241
0.0884861
0.087006
0.085594
0.0842581
0.0830044
0.0818373
0.0807595
0.0797722
0.0788771
0.0780762
0.077368
0.0767512
0.0762251
0.0757887
0.0754409
0.0751807
0.0750077
0.0749212
0.0873138
0.0874338
0.087673
0.0880301
0.0885027
0.0890878
0.0897814
0.0905785
0.0914732
0.0924583
0.0935252
0.0946639
0.095863
0.0971101
0.098389
0.0996827
0.100972
0.10224
0.103462
0.104617
0.10568
0.106627
0.107434
0.108078
0.108541
0.108803
0.108853
0.108682
0.108286
0.107668
0.106838
0.105808
0.104599
0.103232
0.101735
0.100133
0.0984554
0.096729
0.0949801
0.0932325
0.0915075
0.0898237
0.0881965
0.0866386
0.0851601
0.0837683
0.0824686
0.0812644
0.0801569
0.0791467
0.0782357
0.0774237
0.0767077
0.0760861
0.0755573
0.0751196
0.0747714
0.0745113
0.0743386
0.0742523
0.0864347
0.0865622
0.0868165
0.0871965
0.0876999
0.0883241
0.0890653
0.0899188
0.090879
0.0919391
0.0930908
0.094324
0.0956274
0.0969886
0.0983905
0.0998149
0.101242
0.102653
0.104021
0.105322
0.106527
0.107609
0.10854
0.109293
0.109845
0.110174
0.110263
0.110103
0.109688
0.109022
0.108114
0.106982
0.105649
0.104142
0.102492
0.100732
0.0988937
0.0970098
0.0951101
0.0932213
0.0913671
0.0895673
0.0878382
0.0861926
0.0846398
0.0831867
0.0818374
0.0805936
0.0794553
0.0784226
0.077497
0.0766749
0.0759526
0.0753277
0.0747977
0.0743602
0.074013
0.0737541
0.0735823
0.0734965
0.0854277
0.0855635
0.0858343
0.0862392
0.0867763
0.0874432
0.0882367
0.0891523
0.0901851
0.0913286
0.0925747
0.0939142
0.0953354
0.0968256
0.0983678
0.0999425
0.10153
0.103107
0.104647
0.10612
0.107495
0.10874
0.109821
0.110707
0.111369
0.111779
0.111919
0.111773
0.111336
0.110611
0.10961
0.108354
0.106871
0.105194
0.103359
0.101408
0.0993781
0.0973073
0.0952301
0.0931768
0.0911736
0.0892416
0.0873979
0.0856547
0.084021
0.082502
0.0811004
0.079816
0.0786476
0.0775945
0.0766562
0.075826
0.0750998
0.0744743
0.0739456
0.0735104
0.0731659
0.0729095
0.0727396
0.0726548
0.0842847
0.0844292
0.0847176
0.0851493
0.0857226
0.0864356
0.0872855
0.0882687
0.0893806
0.0906153
0.0919656
0.0934226
0.094975
0.0966096
0.098311
0.100057
0.101828
0.103598
0.105338
0.107014
0.108591
0.11003
0.111293
0.112341
0.113138
0.113651
0.113854
0.113728
0.113267
0.112471
0.111357
0.10995
0.108284
0.106399
0.104343
0.102162
0.0999037
0.0976122
0.0953274
0.0930839
0.0909104
0.0888294
0.0868583
0.0850087
0.0832883
0.0817003
0.0802449
0.0789204
0.0777248
0.0766553
0.0757071
0.0748725
0.0741463
0.0735237
0.0729995
0.0725695
0.07223
0.071978
0.0718112
0.0717281
0.0829967
0.0831505
0.0834575
0.0839174
0.084529
0.0852909
0.0862009
0.0872563
0.0884532
0.0897867
0.0912503
0.0928358
0.0945329
0.0963285
0.0982076
0.100148
0.102128
0.10412
0.106092
0.108006
0.109821
0.111494
0.112977
0.114223
0.115186
0.115826
0.116109
0.116012
0.115522
0.114643
0.113391
0.111799
0.10991
0.107774
0.105449
0.102993
0.100463
0.0979112
0.0953847
0.0929224
0.0905559
0.0883089
0.0861982
0.0842345
0.0824232
0.0807648
0.0792566
0.0778957
0.0766782
0.0755964
0.0746432
0.0738095
0.0730886
0.0724735
0.0719581
0.071537
0.0712056
0.0709602
0.0707982
0.0707175
0.0815546
0.0817179
0.0820442
0.0825334
0.0831849
0.0839977
0.0849709
0.0861023
0.0873893
0.0888281
0.0904134
0.0921381
0.093993
0.0959657
0.098041
0.1002
0.102416
0.104661
0.106901
0.109094
0.111193
0.113144
0.114893
0.116381
0.117551
0.118351
0.118737
0.118679
0.118158
0.117177
0.115758
0.11394
0.111778
0.109335
0.106684
0.103897
0.101043
0.098186
0.0953791
0.0926669
0.0900834
0.0876532
0.085392
0.0833083
0.081404
0.0796762
0.0781196
0.0767294
0.0754963
0.0744088
0.0734581
0.0726326
0.0719236
0.0713222
0.0708209
0.0704132
0.0700936
0.0698577
0.0697022
0.0696248
0.0799484
0.0801215
0.0804673
0.0809863
0.0816785
0.0825438
0.083582
0.0847924
0.0861735
0.087723
0.0894372
0.0913107
0.0933356
0.0955011
0.0977929
0.100193
0.102675
0.105209
0.107758
0.110276
0.112708
0.114993
0.117065
0.11885
0.120277
0.12128
0.1218
0.121794
0.12124
0.120137
0.118513
0.116417
0.113918
0.1111
0.108053
0.104867
0.101628
0.0984118
0.0952806
0.0922844
0.0894594
0.0868297
0.084409
0.0822018
0.080205
0.0784124
0.0768166
0.0754071
0.0741675
0.0730841
0.0721457
0.0713377
0.070649
0.0700688
0.0695883
0.0691996
0.0688962
0.068673
0.0685264
0.0684534
0.078168
0.0783508
0.0787161
0.0792649
0.079998
0.0809161
0.0820202
0.083311
0.0847887
0.0864527
0.0883015
0.0903317
0.0925376
0.0949107
0.0974383
0.100104
0.102882
0.105742
0.108645
0.11154
0.114366
0.117052
0.119516
0.121668
0.123418
0.124679
0.125373
0.125442
0.124853
0.123603
0.121725
0.119284
0.11637
0.113089
0.109557
0.10589
0.102192
0.0985542
0.0950496
0.0917331
0.0886419
0.0857986
0.0832125
0.0808823
0.0787988
0.0769519
0.0753301
0.0739129
0.0726795
0.071614
0.0707007
0.0699217
0.0692636
0.0687139
0.0682619
0.0678987
0.0676167
0.0674101
0.0672748
0.0672075
0.0762034
0.0763955
0.0767798
0.0773577
0.0781308
0.079101
0.0802703
0.0816414
0.0832164
0.0849968
0.0869836
0.0891764
0.0915722
0.0941655
0.0969467
0.0999017
0.103007
0.106233
0.109539
0.112872
0.116162
0.119327
0.12227
0.124878
0.127035
0.128628
0.129551
0.129726
0.129103
0.127675
0.125483
0.122611
0.119177
0.115321
0.111194
0.106943
0.102697
0.0985663
0.0946339
0.0909591
0.0875789
0.0845113
0.0817586
0.0793113
0.077154
0.0752706
0.0736394
0.0722312
0.0710216
0.0699914
0.0691185
0.0683824
0.0677675
0.0672589
0.0668447
0.0665143
0.0662596
0.066074
0.0659529
0.0658928
0.0740448
0.0742457
0.0746479
0.0752534
0.0760645
0.0770845
0.078317
0.0797663
0.081437
0.0833332
0.0854588
0.0878169
0.0904084
0.0932319
0.0962818
0.0995484
0.103011
0.106643
0.110405
0.114241
0.118076
0.121817
0.125345
0.128524
0.131201
0.133224
0.134455
0.134779
0.134126
0.132482
0.129895
0.126479
0.122389
0.117815
0.112952
0.107989
0.10309
0.0983835
0.0939642
0.0898936
0.0862052
0.0829084
0.079994
0.0774436
0.0752351
0.0733401
0.0717224
0.0703464
0.0691838
0.0682095
0.0673956
0.0667192
0.066162
0.0657071
0.0653409
0.0650519
0.064831
0.0646712
0.0645675
0.0645162
0.0716831
0.071892
0.0723104
0.0729409
0.073787
0.0748531
0.0761446
0.0776678
0.0794299
0.0814381
0.0836999
0.0862224
0.0890116
0.0920709
0.0954007
0.0989974
0.102846
0.106925
0.111196
0.115609
0.120082
0.124512
0.128759
0.132653
0.135996
0.138585
0.140229
0.140767
0.140096
0.138188
0.135103
0.130992
0.126068
0.120585
0.114806
0.108975
0.103294
0.0979186
0.0929504
0.0884492
0.0844396
0.0809181
0.0778595
0.0752336
0.0730067
0.0711303
0.0695563
0.0682432
0.0671566
0.0662632
0.0655307
0.0649335
0.0644507
0.0640634
0.0637568
0.0635184
0.0633386
0.0632099
0.063127
0.0630862
0.0691098
0.0693255
0.0697578
0.0704101
0.0712867
0.0723935
0.0737376
0.0753277
0.0771738
0.0792866
0.0816778
0.0843591
0.0873423
0.0906377
0.0942526
0.0981919
0.10245
0.107012
0.111849
0.116914
0.12213
0.127382
0.132512
0.137309
0.141518
0.144859
0.147066
0.147913
0.147246
0.145013
0.141289
0.136279
0.130276
0.123632
0.116702
0.109806
0.103199
0.0970526
0.0914737
0.0865133
0.0821814
0.0784546
0.0752873
0.0726303
0.0704273
0.0686104
0.0671209
0.0659094
0.0649333
0.0641505
0.0635253
0.0630296
0.0626398
0.0623356
0.062101
0.0619232
0.0617921
0.0617
0.0616416
0.0616129
0.0663176
0.0665386
0.0669819
0.0676514
0.0685525
0.0696926
0.0710808
0.072728
0.0746472
0.0768531
0.0793618
0.0821906
0.0853577
0.0888816
0.0927787
0.0970644
0.101747
0.106822
0.112274
0.118068
0.124135
0.130361
0.136576
0.142524
0.147864
0.152211
0.155193
0.15649
0.155869
0.153239
0.148689
0.142502
0.135093
0.126951
0.118568
0.110364
0.102654
0.095628
0.0893788
0.0839442
0.0793083
0.0754186
0.0722012
0.0695755
0.0674538
0.0657516
0.0643991
0.0633368
0.0625109
0.061873
0.0613847
0.0610151
0.0607385
0.0605338
0.0603846
0.0602778
0.0602033
0.0601535
0.0601232
0.0601086
0.0633002
0.0635247
0.0639753
0.0646565
0.0655748
0.0667389
0.0681599
0.0698514
0.071829
0.0741117
0.0767202
0.0796783
0.0830113
0.0867469
0.0909126
0.0955363
0.100645
0.10625
0.112357
0.118949
0.12598
0.13335
0.140888
0.148304
0.155159
0.160875
0.164932
0.166891
0.166391
0.16327
0.15763
0.149868
0.140582
0.130474
0.120228
0.110407
0.101442
0.0934276
0.0864655
0.0805715
0.0756857
0.0717075
0.0685236
0.0660091
0.0640458
0.0625306
0.0613796
0.0605217
0.0598921
0.0594381
0.0591192
0.058902
0.0587601
0.0586721
0.0586218
0.0585965
0.0585864
0.0585846
0.058586
0.0585872
0.0600534
0.0602792
0.0607327
0.061419
0.0623454
0.0635224
0.0649626
0.066682
0.0686993
0.0710372
0.0737219
0.0767832
0.0802546
0.0841738
0.0885815
0.09352
0.0990379
0.105171
0.11195
0.119391
0.127486
0.136175
0.1453
0.154592
0.163532
0.171051
0.176601
0.179533
0.179287
0.175569
0.168492
0.158615
0.146819
0.134124
0.121511
0.109691
0.099289
0.090182
0.0824751
0.0761809
0.071148
0.067201
0.0641678
0.0618734
0.0601694
0.0589315
0.0580594
0.0574685
0.057087
0.0568599
0.0567447
0.0567076
0.0567221
0.0567679
0.0568299
0.0568961
0.0569581
0.0570094
0.0570458
0.0570644
0.0565746
0.0567992
0.0572506
0.0579344
0.0588588
0.0600354
0.0614785
0.0632062
0.0652404
0.0676072
0.0703374
0.0734676
0.0770393
0.0811009
0.085707
0.0909172
0.0968024
0.103432
0.110872
0.11918
0.1284
0.138563
0.14957
0.161082
0.167352
0.177347
0.185254
0.190336
0.191718
0.188793
0.181474
0.170355
0.156539
0.141409
0.126312
0.112266
0.0959538
0.0854706
0.0770819
0.0705151
0.0655046
0.0617676
0.0590489
0.0571208
0.0558035
0.0549513
0.0544461
0.0541924
0.0541156
0.0541604
0.0542843
0.0544547
0.0546469
0.0548429
0.0550294
0.0551964
0.055337
0.0554462
0.0555205
0.0555579
0.0528641
0.0530847
0.0535285
0.0542013
0.055112
0.0562732
0.0577006
0.0594141
0.0614382
0.0638021
0.0665408
0.0696968
0.0733195
0.0774675
0.0822097
0.0876243
0.0938048
0.10086
0.108902
0.118046
0.128393
0.140089
0.153282
0.161902
0.175666
0.188785
0.200043
0.207788
0.210708
0.20768
0.198404
0.183746
0.165489
0.145818
0.126786
0.109952
0.0957679
0.078793
0.0698396
0.0632694
0.0585561
0.0552816
0.0530991
0.0517249
0.050949
0.0506063
0.0505638
0.0507226
0.0510096
0.0513715
0.0517689
0.0521725
0.052562
0.0529226
0.0532442
0.0535197
0.0537443
0.0539149
0.0540294
0.0540867
0.0489247
0.0491384
0.0495684
0.0502209
0.0511052
0.0522346
0.0536258
0.0552999
0.0572832
0.0596077
0.0623117
0.0654421
0.0690554
0.0732188
0.0780146
0.0835398
0.0899109
0.0972705
0.105792
0.115666
0.127066
0.1402
0.155852
0.166561
0.183178
0.197315
0.212912
0.224767
0.23101
0.229538
0.219327
0.201352
0.178202
0.153171
0.129248
0.105378
0.0880018
0.069251
0.0601968
0.054109
0.050107
0.0476458
0.0462832
0.0456908
0.0456349
0.0459359
0.0464578
0.0471064
0.0478148
0.0485362
0.0492377
0.0498971
0.0504999
0.0510365
0.0515012
0.0518905
0.0522027
0.052437
0.0525931
0.052671
0.0447624
0.0449659
0.0453757
0.0459981
0.0468426
0.0479227
0.0492555
0.0508629
0.0527722
0.0550167
0.0576371
0.0606834
0.0642165
0.0683105
0.0730576
0.0785706
0.0849884
0.0924827
0.101277
0.11166
0.123917
0.138224
0.156065
0.169566
0.190288
0.20809
0.22964
0.248126
0.25988
0.260608
0.247915
0.223215
0.1912
0.157507
0.126622
0.0966697
0.0767064
0.055794
0.0476928
0.0427508
0.0400283
0.0388261
0.038623
0.0390725
0.0399288
0.0410121
0.0421994
0.0434107
0.044592
0.0457087
0.0467394
0.0476713
0.0484984
0.049218
0.0498299
0.0503355
0.0507366
0.0510352
0.0512331
0.0513316
0.0403863
0.0405764
0.0409594
0.0415417
0.0423324
0.043345
0.0445964
0.0461087
0.0479087
0.0500303
0.0525146
0.0554124
0.0587867
0.0627147
0.0672935
0.0726456
0.0789267
0.0863304
0.0951107
0.105643
0.118389
0.133518
0.153253
0.169609
0.1945
0.218427
0.248389
0.277415
0.299106
0.304574
0.287983
0.251728
0.205139
0.158333
0.117948
0.0806652
0.0593216
0.0377018
0.0318294
0.0289983
0.0283021
0.0288874
0.0302268
0.0319918
0.0339493
0.0359462
0.0378895
0.0397243
0.0414183
0.0429557
0.0443308
0.0455439
0.0465993
0.047503
0.0482619
0.0488825
0.049371
0.0497326
0.0499712
0.0500897
0.0358087
0.0359822
0.036332
0.0368639
0.037587
0.0385139
0.039661
0.0410492
0.0427044
0.0446592
0.0469532
0.0496358
0.052768
0.0564259
0.0607056
0.0657295
0.0716582
0.0786979
0.0871106
0.0973057
0.109928
0.125181
0.146019
0.164992
0.19354
0.224836
0.265944
0.312279
0.353144
0.36956
0.346501
0.288715
0.217166
0.150841
0.0990466
0.0545876
0.0342706
0.0142209
0.012363
0.012891
0.015088
0.0180363
0.0213102
0.0246491
0.0278751
0.0308935
0.03366
0.0361579
0.0383862
0.0403542
0.0420761
0.0435683
0.0448477
0.04593
0.0468299
0.04756
0.0481311
0.0485519
0.0488287
0.0489658
0.0310453
0.0311992
0.0315093
0.0319814
0.0326234
0.0334471
0.0344674
0.0357037
0.0371795
0.0389246
0.0409752
0.0433762
0.0461835
0.0494666
0.053313
0.0578343
0.0631801
0.0695486
0.0771849
0.0864618
0.0980971
0.112267
0.132545
0.153043
0.182735
0.2211
0.27505
0.34871
0.428331
0.472264
0.437265
0.334917
0.219098
0.126194
0.0632618
0.0148857
-9.77996e-05
-0.0147495
-0.0103744
-0.00513245
0.000817681
0.00667048
0.0122203
0.0173375
0.021949
0.0260524
0.0296719
0.0328419
0.035601
0.0379894
0.0400446
0.0418012
0.0432899
0.0445372
0.0455661
0.0463956
0.0470411
0.0475148
0.0478256
0.0479793
0.026115
0.0262463
0.026511
0.0269142
0.0274627
0.028167
0.02904
0.0300984
0.0313626
0.0328583
0.0346162
0.0366743
0.0390797
0.0418899
0.0451771
0.0490309
0.0535696
0.058958
0.0653882
0.0731235
0.0827846
0.0943278
0.111563
0.131099
0.156625
0.197467
0.259007
0.368841
0.527838
0.649132
0.587423
0.379921
0.18723
0.0664507
0.00103115
-0.0416616
-0.0443776
-0.0481918
-0.0352986
-0.0241368
-0.0137394
-0.00458657
0.00345316
0.0104454
0.0164738
0.0216592
0.0261096
0.0299204
0.0331762
0.0359508
0.0383073
0.0402992
0.0419717
0.043362
0.0445015
0.0454151
0.0461232
0.046641
0.04698
0.0471475
0.0210397
0.0211458
0.02136
0.0216862
0.0221304
0.0227008
0.0234082
0.0242661
0.0252908
0.0265024
0.027925
0.0295877
0.0315252
0.0337794
0.0364014
0.0394492
0.0429945
0.0471393
0.05199
0.0576369
0.0644369
0.0719218
0.0834703
0.0981424
0.110806
0.142022
0.186609
0.315738
0.61577
0.988321
0.844932
0.352782
0.0591944
-0.0561529
-0.0956003
-0.115054
-0.0966555
-0.0835161
-0.0604255
-0.0426391
-0.0274576
-0.0148892
-0.00436601
0.00443509
0.011795
0.0179739
0.0231697
0.0275431
0.031226
0.0343265
0.0369326
0.039116
0.0409353
0.0424382
0.0436633
0.0446412
0.0453964
0.0459472
0.0463071
0.0464847
0.015844
0.0159229
0.016082
0.0163247
0.0166552
0.0170798
0.0176065
0.0182452
0.0190075
0.0199075
0.0209614
0.0221878
0.0236079
0.0252451
0.0271259
0.0292736
0.0317053
0.0344438
0.0374901
0.040744
0.0441886
0.0468462
0.0511074
0.0571852
0.0483045
0.0499561
0.0252934
0.0566748
0.346949
1.52654
1.19051
-0.131826
-0.283959
-0.260573
-0.223409
-0.197354
-0.15071
-0.116291
-0.0828337
-0.0586335
-0.0389257
-0.0232487
-0.0105427
-0.000198601
0.00827011
0.0152568
0.0210435
0.0258515
0.0298564
0.0331965
0.0359813
0.0382981
0.040217
0.041794
0.0430738
0.0440918
0.0448757
0.0454461
0.0458183
0.0460016
0.0105551
0.0106049
0.0107055
0.0108593
0.011069
0.0113386
0.0116732
0.0120788
0.0125622
0.0131309
0.013793
0.0145566
0.0154286
0.0164141
0.017515
0.018723
0.020006
0.02131
0.0225429
0.0234658
0.0237175
0.0219792
0.0195346
0.0157708
-0.0160225
-0.0569162
-0.195672
-0.427135
-1.06644
-2.13244
-0.811677
-0.495513
-0.350723
-0.270352
-0.196311
-0.140799
-0.0990151
-0.0698515
-0.0466464
-0.0286725
-0.0144053
-0.00299022
0.00622593
0.0137397
0.0198964
0.0249655
0.0291552
0.0326254
0.0355013
0.0378813
0.0398435
0.0414496
0.0427487
0.043779
0.0445706
0.0451456
0.0455202
0.0457047
0.00520161
0.00522115
0.00526093
0.00532215
0.005406
0.00551445
0.00564936
0.0058131
0.00600736
0.00623363
0.00649202
0.00678054
0.00709365
0.00741931
0.00773891
0.00802013
0.00819938
0.00817111
0.00778846
0.00679546
0.00467539
0.000253546
-0.00584896
-0.0159479
-0.0590591
-0.130962
-0.357246
-0.777811
-1.23969
-1.74374
-1.92247
-1.03835
-0.629193
-0.428847
-0.312818
-0.222513
-0.151778
-0.105843
-0.0743029
-0.0493619
-0.030352
-0.0154196
-0.00357814
0.00591007
0.013593
0.0198477
0.0249696
0.0291824
0.0326563
0.0355235
0.0378877
0.0398306
0.0414164
0.0426958
0.0437084
0.0444849
0.0450482
0.0454148
0.0455952
-0.000185945
-0.000197372
-0.000219891
-0.000253317
-0.000297964
-0.000354059
-0.000422482
-0.000504481
-0.000602879
-0.000722033
-0.000868875
-0.00105405
-0.00129378
-0.00161313
-0.00204671
-0.00264159
-0.00347019
-0.00465343
-0.0063468
-0.00869284
-0.0121172
-0.01701
-0.0229336
-0.0320809
-0.0656188
-0.129323
-0.338045
-0.844874
-2.57833
-1.81522
-2.46481
-1.5728
-0.960415
-0.621736
-0.434432
-0.31358
-0.222862
-0.146387
-0.101645
-0.0708706
-0.0463981
-0.0278639
-0.0133127
-0.00178285
0.00743997
0.0148943
0.020949
0.0258981
0.0299605
0.0333032
0.0360564
0.0383221
0.0401804
0.0416944
0.0429139
0.0438776
0.0446157
0.0451506
0.0454984
0.0456694
-0.00557635
-0.005619
-0.00570421
-0.00583283
-0.00600648
-0.00622754
-0.00649924
-0.00682605
-0.00721495
-0.0076751
-0.00821967
-0.00886625
-0.00963915
-0.0105732
-0.011714
-0.0131176
-0.0148511
-0.0170214
-0.019772
-0.0230755
-0.0271838
-0.0312936
-0.035457
-0.0377814
-0.0475788
-0.0617328
-0.102949
-0.0564379
-0.230285
-1.54656
-1.80699
-1.18103
-0.755308
-0.521245
-0.378918
-0.274804
-0.197227
-0.125049
-0.0866936
-0.0596457
-0.0378499
-0.0212738
-0.00813394
0.00235593
0.0107812
0.0176146
0.023176
0.0277298
0.0314708
0.0345495
0.037085
0.0391706
0.0408801
0.0422717
0.0433917
0.044276
0.0449529
0.045443
0.0457616
0.045918
-0.010938
-0.0110116
-0.0111591
-0.0113819
-0.0116832
-0.0120669
-0.0125385
-0.0131051
-0.0137772
-0.014568
-0.0154952
-0.0165826
-0.0178602
-0.0193695
-0.0211649
-0.0233117
-0.0258746
-0.0289386
-0.0326565
-0.0368917
-0.0419457
-0.0459504
-0.0506914
-0.0469264
-0.04059
-0.0130107
0.074849
0.432513
0.375316
-0.444269
-0.946783
-0.723906
-0.51235
-0.373676
-0.286657
-0.207517
-0.151138
-0.0910827
-0.06302
-0.0418919
-0.0245739
-0.0111371
-0.000258208
0.00857787
0.0157478
0.0216192
0.0264292
0.0303892
0.0336544
0.0363485
0.0385713
0.0404018
0.041903
0.0431253
0.044109
0.0448857
0.0454798
0.04591
0.0461894
0.0463266
-0.0162392
-0.0163432
-0.0165515
-0.0168665
-0.0172923
-0.0178342
-0.0184992
-0.0192973
-0.0202412
-0.0213473
-0.0226369
-0.0241382
-0.0258861
-0.0279273
-0.0303235
-0.0331551
-0.0364973
-0.0404191
-0.0451395
-0.0505312
-0.0573516
-0.0631191
-0.0726346
-0.0690967
-0.0676314
-0.0456409
0.0204086
0.120127
-0.0122876
-0.255112
-0.418871
-0.380766
-0.290822
-0.226587
-0.179196
-0.125214
-0.0929968
-0.0494678
-0.0337552
-0.0196884
-0.00796409
0.00162672
0.00968559
0.0164444
0.022029
0.0266846
0.0305443
0.0337533
0.0364172
0.0386266
0.0404566
0.0419679
0.0432096
0.0442219
0.0450372
0.045681
0.0461737
0.0465304
0.046762
0.0468756
-0.021449
-0.0215823
-0.0218495
-0.0222533
-0.022799
-0.0234926
-0.0243429
-0.0253613
-0.0265625
-0.027965
-0.0295926
-0.0314766
-0.0336562
-0.036184
-0.0391234
-0.0425668
-0.046617
-0.0513438
-0.0570832
-0.0637543
-0.072876
-0.0816062
-0.0981999
-0.100219
-0.114912
-0.127867
-0.129371
-0.252303
-0.177994
-0.195054
-0.225553
-0.172698
-0.127273
-0.100133
-0.0744081
-0.0390662
-0.0307764
-0.00581449
-0.00247401
0.00451716
0.0103405
0.0159159
0.0209305
0.0254131
0.0292361
0.0325285
0.0353122
0.0376639
0.0396376
0.0412889
0.0426656
0.0438078
0.0447495
0.045519
0.0461398
0.0466305
0.0470062
0.0472782
0.0474548
0.0475412
-0.0265372
-0.0266985
-0.0270219
-0.0275104
-0.0281701
-0.0290078
-0.0300332
-0.0312589
-0.0327008
-0.0343787
-0.0363181
-0.0385515
-0.0411207
-0.0440805
-0.0474868
-0.0514398
-0.0560779
-0.0614761
-0.0680923
-0.0757753
-0.0868507
-0.0979421
-0.120344
-0.128277
-0.154213
-0.193833
-0.227573
-0.366227
-0.300779
-0.253169
-0.219466
-0.131541
-0.0430943
0.00744419
0.0217108
0.0397633
0.0270514
0.0348435
0.0274571
0.0283349
0.0287216
0.0306109
0.0326892
0.0349231
0.0369598
0.0388472
0.0405027
0.0419443
0.0431784
0.0442269
0.0451111
0.0458507
0.0464642
0.0469676
0.0473747
0.0476972
0.0479443
0.0481233
0.0482395
0.048296
-0.0314747
-0.0316625
-0.032039
-0.0326076
-0.0333747
-0.0343477
-0.035537
-0.0369558
-0.0386206
-0.0405522
-0.0427773
-0.0453255
-0.0482358
-0.0515602
-0.0553446
-0.0596869
-0.0647532
-0.0705885
-0.0777442
-0.0857958
-0.0977175
-0.109225
-0.133991
-0.144638
-0.170947
-0.216998
-0.240512
-0.317653
-0.293199
-0.326515
-0.259133
-0.114088
0.0336501
0.102313
0.101987
0.103232
0.0740554
0.0681329
0.0532461
0.0498077
0.0458428
0.0447439
0.0442524
0.0444589
0.0448188
0.0453496
0.0458891
0.046416
0.0468977
0.0473268
0.0477006
0.0480205
0.0482902
0.0485139
0.0486961
0.0488409
0.0489521
0.0490327
0.0490849
0.0491099
-0.0362339
-0.0364466
-0.0368727
-0.0375162
-0.0383835
-0.0394823
-0.0408238
-0.0424213
-0.0442915
-0.046456
-0.0489394
-0.0517652
-0.0549666
-0.0585898
-0.0626722
-0.0672847
-0.0725971
-0.0785784
-0.0858451
-0.0935093
-0.104974
-0.114743
-0.138093
-0.147523
-0.16691
-0.206783
-0.205437
-0.235252
-0.211511
-0.303936
-0.279172
-0.119457
0.0688991
0.166222
0.153486
0.14172
0.105685
0.0917473
0.0733195
0.0677466
0.0608706
0.0576699
0.0551072
0.0536125
0.0524914
0.0517809
0.0512666
0.0509121
0.0506592
0.0504764
0.0503414
0.0502397
0.0501622
0.0501022
0.0500555
0.0500192
0.0499916
0.0499715
0.0499581
0.0499508
-0.040789
-0.0410246
-0.0414967
-0.0422094
-0.0431694
-0.0443845
-0.0458666
-0.0476289
-0.0496877
-0.0520641
-0.0547776
-0.0578459
-0.0612978
-0.0651707
-0.0694886
-0.0742735
-0.079677
-0.0855488
-0.092564
-0.0992594
-0.109263
-0.115756
-0.134754
-0.140285
-0.149775
-0.176947
-0.157947
-0.169956
-0.158678
-0.252677
-0.287638
-0.113298
0.0644035
0.133882
0.15637
0.150078
0.120483
0.106218
0.0878053
0.0819829
0.0735709
0.0691071
0.0649814
0.0621255
0.059742
0.057935
0.0564613
0.0552869
0.054339
0.0535707
0.0529444
0.0524329
0.0520157
0.0516769
0.0514044
0.051189
0.0510238
0.0509038
0.0508254
0.050786
-0.0451157
-0.0453725
-0.0458867
-0.0466629
-0.0477076
-0.0490295
-0.0506411
-0.0525549
-0.0547858
-0.0573532
-0.0602723
-0.0635594
-0.0672366
-0.0713288
-0.0758456
-0.080752
-0.0861702
-0.0918011
-0.0983952
-0.103895
-0.111981
-0.11465
-0.127615
-0.127605
-0.12579
-0.136773
-0.102271
-0.101027
-0.116696
-0.284553
-0.361908
-0.154461
-0.0110435
0.0485724
0.115469
0.13664
0.122892
0.114654
0.0983469
0.0933126
0.0842579
0.0791071
0.0738173
0.0698835
0.0664304
0.0636652
0.0613354
0.0594174
0.0578292
0.0565152
0.0554277
0.0545289
0.053789
0.0531842
0.0526956
0.0523082
0.0520107
0.0517944
0.0516532
0.0515828
-0.049192
-0.0494678
-0.0500202
-0.0508537
-0.0519756
-0.053395
-0.0551248
-0.0571759
-0.059563
-0.0623033
-0.065412
-0.0689052
-0.0727959
-0.0770976
-0.0818115
-0.0868498
-0.0923127
-0.0977406
-0.103989
-0.108479
-0.11483
-0.114211
-0.120979
-0.114638
-0.100767
-0.0927555
-0.0472135
-0.0265995
-0.0437206
-0.268663
-0.388244
-0.223486
-0.113345
-0.0185533
0.0741427
0.11982
0.121516
0.121353
0.107292
0.103018
0.0935784
0.0879243
0.0816916
0.0768645
0.0724836
0.0688752
0.0657848
0.0632025
0.061037
0.0592267
0.0577171
0.0564623
0.0554248
0.0545736
0.0538842
0.0533366
0.0529155
0.0526093
0.0524093
0.05231
-0.0529975
-0.0532902
-0.0538766
-0.0547615
-0.0559527
-0.0574598
-0.059295
-0.0614691
-0.0639977
-0.0668984
-0.070187
-0.0738795
-0.0779833
-0.0825047
-0.0874471
-0.0926863
-0.0983236
-0.103749
-0.109962
-0.114016
-0.119451
-0.117086
-0.119407
-0.107285
-0.0825419
-0.0543863
-0.00840037
0.0400663
0.0176049
-0.240198
-0.310966
-0.236534
-0.137764
-0.0263446
0.0572123
0.113925
0.124322
0.129894
0.116645
0.112253
0.102162
0.0958535
0.0886986
0.0830484
0.0778368
0.0734881
0.0697275
0.066558
0.0638827
0.0616324
0.0597474
0.0581752
0.0568713
0.0557991
0.054929
0.054237
0.0537043
0.0533166
0.0530635
0.0529379
-0.0565142
-0.0568217
-0.0574377
-0.0583678
-0.0596199
-0.0612036
-0.0631309
-0.0654145
-0.0680721
-0.0711222
-0.0745817
-0.078469
-0.0827922
-0.0875565
-0.0927806
-0.098325
-0.10433
-0.110062
-0.116709
-0.121164
-0.12701
-0.125243
-0.126907
-0.111697
-0.0816638
-0.037661
0.00528486
0.0441409
-0.031155
-0.196567
-0.218685
-0.207046
-0.113444
-0.006272
0.06676
0.123936
0.135123
0.141849
0.127363
0.121607
0.110341
0.103053
0.0948954
0.0884189
0.0824355
0.0774277
0.0730881
0.0694115
0.0662966
0.063669
0.0614616
0.0596162
0.0580828
0.0568198
0.0557934
0.0549761
0.0543464
0.0538878
0.0535883
0.0534398
-0.0597265
-0.0600464
-0.0606876
-0.0616559
-0.0629593
-0.0646076
-0.066614
-0.0689942
-0.0717671
-0.0749533
-0.0785727
-0.0826494
-0.0871974
-0.0922284
-0.0977875
-0.103743
-0.110314
-0.116678
-0.124258
-0.130008
-0.137765
-0.139161
-0.144981
-0.131662
-0.10744
-0.0639176
-0.0391655
-0.0489897
-0.0780583
-0.0747694
-0.113075
-0.115138
-0.0475997
0.0340586
0.0991848
0.148158
0.153346
0.156721
0.139223
0.130978
0.118037
0.109448
0.100212
0.0929026
0.0862067
0.0806186
0.075789
0.0716951
0.0682187
0.0652814
0.0628109
0.0607419
0.0590204
0.0576008
0.0564457
0.0555251
0.0548152
0.0542979
0.0539599
0.0537924
-0.0626209
-0.0629508
-0.0636123
-0.064611
-0.0659554
-0.067656
-0.0697283
-0.0721894
-0.0750607
-0.0783658
-0.0821289
-0.0863829
-0.091152
-0.0964597
-0.102385
-0.108821
-0.116094
-0.123335
-0.132239
-0.139951
-0.150762
-0.157143
-0.170673
-0.164536
-0.157346
-0.13597
-0.144786
-0.192883
-0.101141
-0.0199552
-0.0438751
-0.0175412
0.0455154
0.10789
0.152063
0.181535
0.175861
0.172569
0.151083
0.139653
0.124798
0.114738
0.104444
0.0963528
0.089044
0.0829783
0.0777592