/*--------------------------------*- C++ -*----------------------------------*\
  =========                 |
  \\      /  F ield         | OpenFOAM: The Open Source CFD Toolbox
   \\    /   O peration     | Website:  https://openfoam.org
    \\  /    A nd           | Version:  12
     \\/     M anipulation  |
\*---------------------------------------------------------------------------*/
FoamFile
{
    format      ascii;
    class       surfaceScalarField;
    location    "500";
    object      phi;
}
// * * * * * * * * * * * * * * * * * * * * * * * * * * * * * * * * * * * * * //

dimensions      [0 3 -1 0 0 0 0];

internalField   nonuniform List<scalar> 
32440
(
-4.75937e-07
0.0399885
1.05049e-06
0.0399885
-1.41846e-06
0.0399905
1.19805e-07
0.0399885
-2.33196e-06
0.0399905
-7.71478e-07
0.0399984
-1.19592e-06
0.0400104
-1.60244e-06
0.0400104
1.25269e-08
0.0400104
1.65211e-06
0.0400104
3.31937e-06
0.0400103
-9.82517e-07
0.0400043
-1.25046e-06
0.0400003
-1.48067e-06
0.0400002
-1.66998e-06
0.0400002
-1.81543e-06
0.0400001
-1.9145e-06
0.0400001
-1.96513e-06
0.0400001
-1.96588e-06
0.04
-1.91584e-06
0.0399999
-1.81489e-06
0.0399999
-1.66371e-06
0.0399998
-1.4642e-06
0.0399998
-1.21923e-06
0.0399998
-9.32648e-07
0.0399997
-6.09239e-07
0.0399997
-2.54565e-07
0.0399996
1.24844e-07
0.0399996
-1.07776e-06
0.0400012
-6.32999e-06
0.0400053
-7.45636e-06
0.0400011
-7.24699e-06
0.0399998
-6.8473e-06
0.0399996
-6.46318e-06
0.0399996
-5.0998e-06
0.0399986
-4.76135e-06
0.0399997
-4.45143e-06
0.0399997
-4.17232e-06
0.0399997
-3.92562e-06
0.0399998
-3.71197e-06
0.0399998
-3.53126e-06
0.0399998
-3.38275e-06
0.0399999
-3.26513e-06
0.0399999
-3.17663e-06
0.0399999
-3.11543e-06
0.0399999
-3.07913e-06
0.04
-3.06539e-06
0.04
-3.0715e-06
0.04
-3.09574e-06
0.04
-3.13537e-06
0.04
-3.18844e-06
0.0400001
-5.25291e-06
0.0400021
-1.13265e-05
0.0400061
-5.40891e-06
0.0400061
-1.49828e-06
0.0400081
-1.59281e-06
0.0400101
3.08894e-07
0.0399981
2.07826e-07
0.0399881
1.05036e-07
0.0399901
0.0399881
-1.3261e-06
0.0399898
-2.64242e-06
0.0399898
-3.93707e-06
0.0399918
-5.19908e-06
0.0399897
-4.41717e-06
0.0399897
-3.58041e-06
0.0399976
-2.6773e-06
0.0400095
-3.69596e-06
0.0400114
-2.62396e-06
0.0400093
5.50049e-07
0.0400072
3.84009e-06
0.040007
-4.74317e-06
0.0400129
-9.19156e-06
0.0400047
-9.49228e-06
0.0400005
-9.6372e-06
0.0400003
-9.61776e-06
0.0400001
-9.4281e-06
0.0399999
-9.06474e-06
0.0399997
-8.52702e-06
0.0399995
-7.81673e-06
0.0399992
-6.93873e-06
0.039999
-5.90315e-06
0.0399988
-4.7225e-06
0.0399986
-3.41322e-06
0.0399984
-1.99524e-06
0.0399983
-2.91629e-07
0.039998
1.27188e-06
0.0399981
2.46791e-06
0.0399984
2.66877e-06
0.040001
-1.45987e-06
0.0400094
-1.42652e-06
0.0400011
2.31078e-08
0.0399983
1.37256e-06
0.0399983
2.60226e-06
0.0399984
2.49616e-06
0.0399987
3.44364e-06
0.0399987
4.23497e-06
0.0399989
4.86763e-06
0.0399991
5.341e-06
0.0399993
5.65855e-06
0.0399995
5.82637e-06
0.0399997
5.85286e-06
0.0399998
5.7481e-06
0.04
5.52432e-06
0.0400001
7.19161e-06
0.0399983
6.7631e-06
0.0400004
6.25087e-06
0.0400005
5.66589e-06
0.0400006
5.01979e-06
0.0400007
4.323e-06
0.0400007
1.58281e-06
0.0400028
-3.19043e-06
0.0400068
-5.99117e-06
0.0400089
-4.81617e-06
0.0400049
-3.65844e-06
0.0400069
-2.51333e-06
0.0400089
2.6228e-06
0.039993
-2.47314e-07
0.039991
8.78625e-07
0.039989
0.039989
-2.06261e-06
0.0399919
-4.10569e-06
0.0399918
-4.10734e-06
0.0399918
-6.04699e-06
0.0399917
-9.90347e-06
0.0399935
-5.65465e-06
0.0399934
-7.28206e-06
0.0400111
-6.76062e-06
0.0400109
-6.07109e-06
0.0400086
-5.18874e-06
0.0400063
-4.0949e-06
0.0400059
-1.27616e-05
0.0400216
-1.51827e-05
0.0400071
-1.53366e-05
0.0400007
-1.52046e-05
0.0400002
-1.47773e-05
0.0399997
-1.40456e-05
0.0399992
-1.30064e-05
0.0399986
-7.66178e-06
0.0399941
-1.00181e-05
0.0400016
-8.08833e-06
0.0399971
-5.89323e-06
0.0399966
-3.46028e-06
0.0399962
-8.23449e-07
0.0399958
1.97746e-06
0.0399955
4.89709e-06
0.0399951
7.8861e-06
0.0399951
1.08915e-05
0.0399954
1.22611e-05
0.0399996
9.45609e-06
0.0400122
1.06851e-05
0.0399999
1.30406e-05
0.039996
1.53697e-05
0.0399959
1.74387e-05
0.0399963
2.02213e-05
0.039996
2.16978e-05
0.0399972
2.28595e-05
0.0399977
2.37048e-05
0.0399982
2.42339e-05
0.0399988
2.44592e-05
0.0399992
2.43961e-05
0.0399997
2.40639e-05
0.0400002
2.34864e-05
0.0400006
2.26829e-05
0.0400009
1.96824e-05
0.0400013
1.85082e-05
0.0400016
1.71862e-05
0.0400018
1.7736e-05
0.04
1.61797e-05
0.0400022
1.25369e-05
0.0400044
8.82444e-06
0.0400065
-2.93784e-06
0.0400186
1.24914e-06
0.0400047
1.40221e-06
0.0400048
1.53109e-06
0.0400068
3.64223e-06
0.0400068
5.74183e-06
0.0399909
3.8331e-06
0.0399929
1.91938e-06
0.0399909
0.0399909
-2.81089e-06
0.0399947
-5.59226e-06
0.0399946
-8.31223e-06
0.0399945
-1.09401e-05
0.0399943
-1.14443e-05
0.039994
-1.37937e-05
0.0399957
-9.95612e-06
0.0400073
-9.9023e-06
0.0400109
-9.59572e-06
0.0400083
-1.10083e-05
0.0400077
-1.21031e-05
0.040007
-1.68505e-05
0.0400263
-2.12354e-05
0.0400115
-2.32233e-05
0.0400027
-2.27961e-05
0.0399998
-1.99325e-05
0.0399968
-1.66252e-05
0.0399959
-4.87175e-06
0.0399869
3.32666e-06
0.0399859
-6.03264e-06
0.040011
-8.98473e-06
0.04
-5.5581e-06
0.0399932
-1.79406e-06
0.0399924
2.25463e-06
0.0399918
6.52639e-06
0.0399912
1.09518e-05
0.0399906
1.54555e-05
0.0399906
1.9759e-05
0.0399911
2.27796e-05
0.0399966
2.13598e-05
0.0400136
2.38679e-05
0.0399974
2.73886e-05
0.0399925
3.09425e-05
0.0399924
3.3883e-05
0.0399934
3.51724e-05
0.0399947
3.71857e-05
0.0399952
3.87106e-05
0.0399962
3.97469e-05
0.0399972
4.23026e-05
0.0399962
4.23969e-05
0.0399991
4.20557e-05
0.0400001
4.1314e-05
0.0400009
4.01999e-05
0.0400017
3.87583e-05
0.0400024
3.70284e-05
0.040003
3.50436e-05
0.0400036
3.2842e-05
0.040004
2.8463e-05
0.0400044
2.79334e-05
0.0400028
2.52831e-05
0.040007
1.25405e-05
0.0400192
9.72528e-06
0.0400214
6.84388e-06
0.0400076
5.92029e-06
0.0400057
4.96722e-06
0.0400078
9.99454e-06
0.0400018
7.0069e-06
0.0399939
6.0105e-06
0.0399939
3.00852e-06
0.0399939
0.0399939
-3.58645e-06
0.0399983
-7.13334e-06
0.0399982
-1.05988e-05
0.039998
-1.39411e-05
0.0399976
-1.7121e-05
0.0399972
-1.80941e-05
0.0399967
-1.28191e-05
0.040002
-1.52541e-05
0.0400133
-1.73567e-05
0.0400104
-1.70833e-05
0.0400074
-1.63911e-05
0.0400064
-1.72362e-05
0.0400271
-2.55895e-05
0.0400199
-2.74215e-05
0.0400045
-2.66971e-05
0.0399991
-2.5395e-05
0.0399955
-1.75003e-05
0.039988
-1.01448e-06
0.0399704
-3.9207e-06
0.0399888
-1.02401e-05
0.0400173
-1.00186e-05
0.0399998
-5.29512e-06
0.0399885
-1.26461e-07
0.0399873
5.41637e-06
0.0399862
1.12488e-05
0.0399854
1.72754e-05
0.0399846
2.33923e-05
0.0399845
2.94883e-05
0.039985
3.38579e-05
0.0399922
3.39043e-05
0.0400136
3.77783e-05
0.0399935
4.27257e-05
0.0399875
4.69586e-05
0.0399881
5.10132e-05
0.0399893
5.50343e-05
0.0399906
5.75943e-05
0.0399927
5.94785e-05
0.0399943
6.06856e-05
0.039996
5.92428e-05
0.0399976
5.91675e-05
0.0399992
5.85032e-05
0.0400007
5.92968e-05
0.0400001
5.75974e-05
0.0400034
5.54632e-05
0.0400045
5.29392e-05
0.0400055
5.00875e-05
0.0400064
4.69593e-05
0.0400072
4.3593e-05
0.0400078
3.80419e-05
0.0400083
2.634e-05
0.0400187
1.05348e-05
0.0400351
1.86156e-05
0.0400133
1.66298e-05
0.0400096
1.25975e-05
0.0400097
1.25322e-05
0.0400078
1.64456e-05
0.0399979
1.23454e-05
0.039998
8.23574e-06
0.039998
4.12131e-06
0.039998
0.039998
-4.40096e-06
0.0400027
-6.75171e-06
0.0400005
-1.10017e-05
0.0400022
-1.50992e-05
0.0400017
-1.89925e-05
0.0400011
-2.26291e-05
0.0400003
-2.19557e-05
0.0400014
-1.89197e-05
0.0400102
-2.14683e-05
0.040013
-2.35463e-05
0.0400095
-2.31053e-05
0.0400059
-6.09115e-06
0.0400101
-2.44232e-05
0.0400382
-3.21124e-05
0.0400122
-3.31007e-05
0.04
-2.93591e-05
0.0399918
-1.88728e-05
0.0399775
-1.16271e-05
0.0399632
-1.16091e-05
0.0399888
-1.48486e-05
0.0400205
-1.13977e-05
0.0399964
-5.30569e-06
0.0399824
1.3549e-06
0.0399806
8.49175e-06
0.0399791
1.5994e-05
0.0399779
2.37385e-05
0.0399769
3.17886e-05
0.0399764
3.92039e-05
0.0399776
4.54348e-05
0.039986
4.70643e-05
0.0400119
5.24015e-05
0.0399881
5.84678e-05
0.0399815
6.42495e-05
0.0399824
6.88602e-05
0.0399847
7.18456e-05
0.0399877
7.49696e-05
0.0399895
7.92083e-05
0.0399901
8.05736e-05
0.0399946
8.10919e-05
0.0399971
8.08022e-05
0.0399995
7.9765e-05
0.0400018
7.60295e-05
0.0400038
7.3683e-05
0.0400057
7.27805e-05
0.0400054
6.94089e-05
0.0400089
6.56263e-05
0.0400102
6.15035e-05
0.0400113
5.71e-05
0.0400122
5.04715e-05
0.0400149
3.56748e-05
0.0400335
3.27463e-05
0.040038
2.96927e-05
0.0400164
2.45698e-05
0.0400147
2.13985e-05
0.0400129
2.6199e-05
0.040003
2.09746e-05
0.0400031
1.57387e-05
0.0400032
1.04966e-05
0.0400032
5.25159e-06
0.0400033
0.0400033
-5.2646e-06
0.0400079
-1.04695e-05
0.0400057
-1.55534e-05
0.0400073
-2.0455e-05
0.0400066
-2.51126e-05
0.0400058
-2.94627e-05
0.0400047
-3.14413e-05
0.0400033
-2.6981e-05
0.0400058
-2.80236e-05
0.040014
-2.84996e-05
0.04001
-3.03453e-05
0.0400078
-2.74982e-05
0.0400073
-2.58719e-05
0.0400366
-3.94482e-05
0.0400258
-3.81767e-05
0.0399988
-3.0013e-05
0.0399836
-6.94536e-06
0.0399544
-1.89087e-05
0.0399751
-1.7933e-05
0.0399878
-1.80404e-05
0.0400206
-1.32915e-05
0.0399916
-5.74445e-06
0.0399748
2.51181e-06
0.0399723
1.1362e-05
0.0399702
2.06702e-05
0.0399686
3.04779e-05
0.039967
4.00148e-05
0.0399669
4.9696e-05
0.0399679
5.75435e-05
0.0399782
6.08995e-05
0.0400086
6.78194e-05
0.0399812
7.55148e-05
0.0399738
8.21319e-05
0.0399757
8.81719e-05
0.0399787
9.37607e-05
0.0399821
9.74564e-05
0.0399858
9.80439e-05
0.0399895
9.95367e-05
0.0399931
9.99747e-05
0.0399967
0.000101413
0.0399981
9.99268e-05
0.0400032
9.75972e-05
0.0400062
9.45162e-05
0.0400088
8.87798e-05
0.0400112
8.64669e-05
0.0400112
8.16829e-05
0.040015
7.64966e-05
0.0400165
7.09872e-05
0.0400177
5.32284e-05
0.0400327
3.13035e-05
0.0400555
4.31815e-05
0.0400261
3.89516e-05
0.0400206
3.46588e-05
0.040019
3.63208e-05
0.0400112
2.9952e-05
0.0400094
2.35679e-05
0.0400095
1.71779e-05
0.0400096
1.07863e-05
0.0400096
6.3965e-06
0.0400076
0.0400097
-4.18669e-06
0.0400121
-1.23064e-05
0.0400138
-1.82848e-05
0.0400133
-2.20506e-05
0.0400104
-2.75342e-05
0.0400112
-3.26603e-05
0.0400098
-3.73524e-05
0.040008
-3.75384e-05
0.040006
-3.51367e-05
0.0400116
-3.80727e-05
0.0400129
-4.02658e-05
0.0400099
-3.76536e-05
0.0400047
-1.41505e-05
0.0400131
-3.56132e-05
0.0400472
-4.81015e-05
0.0400113
-4.15279e-05
0.0399771
-2.98659e-05
0.0399428
-2.70481e-05
0.0399723
-2.3094e-05
0.0399839
-2.20171e-05
0.0400195
-1.58915e-05
0.0399855
-6.79054e-06
0.0399657
3.18425e-06
0.0399624
1.38941e-05
0.0399595
2.51709e-05
0.0399573
3.68193e-05
0.0399554
4.8629e-05
0.0399551
6.03748e-05
0.0399562
7.00246e-05
0.0399685
7.54726e-05
0.0400031
8.41478e-05
0.0399725
9.31942e-05
0.0399647
0.000101353
0.0399676
0.000108302
0.0399717
0.000114941
0.0399754
0.000119222
0.0399816
0.000122152
0.0399866
0.000123737
0.0399916
0.000124037
0.0399964
0.000121129
0.040001
0.000121112
0.0400033
0.000118097
0.0400092
0.000114183
0.0400127
0.000109504
0.0400158
0.000104174
0.0400165
9.82892e-05
0.0400209
9.19517e-05
0.0400228
8.12695e-05
0.0400284
6.23136e-05
0.0400517
5.71624e-05
0.0400606
5.3818e-05
0.0400294
4.8379e-05
0.0400261
5.08796e-05
0.0400165
4.53425e-05
0.0400168
3.77832e-05
0.0400169
3.02188e-05
0.0400171
2.26574e-05
0.0400171
1.51021e-05
0.0400172
7.55309e-06
0.0400152
0.0400172
-7.18078e-06
0.0400193
-1.42834e-05
0.0400209
-1.92255e-05
0.0400182
-2.79308e-05
0.0400191
-3.23119e-05
0.0400156
-3.82883e-05
0.0400158
-4.37724e-05
0.0400135
-4.86762e-05
0.0400109
-4.4903e-05
0.0400078
-4.63731e-05
0.0400144
-4.89915e-05
0.0400126
-5.06615e-05
0.0400063
-4.52968e-05
0.0400077
-5.27637e-05
0.0400547
-5.30687e-05
0.0400116
-4.01349e-05
0.0399641
-3.98873e-05
0.0399425
-3.62792e-05
0.0399687
-2.93114e-05
0.0399769
-2.69896e-05
0.0400172
-1.94069e-05
0.0399779
-8.63606e-06
0.039955
3.20288e-06
0.0399505
1.59456e-05
0.0399468
2.93882e-05
0.0399439
4.32996e-05
0.0399415
5.74142e-05
0.039941
7.12502e-05
0.0399423
8.35309e-05
0.0399562
9.0904e-05
0.0399958
0.000101517
0.0399619
0.000112292
0.0399539
0.000122124
0.0399577
0.000130256
0.0399636
0.000135605
0.0399701
0.000140498
0.0399767
0.000143739
0.0399833
0.000147364
0.0399879
0.000147452
0.0399963
0.000146112
0.0400023
0.000141447
0.0400079
0.000139621
0.040011
0.000134774
0.0400176
0.000129039
0.0400216
0.000120561
0.040025
0.000115471
0.0400259
0.000105905
0.0400324
8.39505e-05
0.0400503
5.57763e-05
0.0400798
7.32884e-05
0.0400431
6.66581e-05
0.0400361
6.79682e-05
0.0400247
5.92176e-05
0.0400252
5.04455e-05
0.0400255
4.16716e-05
0.0400257
3.29082e-05
0.0400258
2.61635e-05
0.0400239
1.74334e-05
0.0400259
6.71529e-06
0.0400259
0.0400239
-8.25313e-06
0.0400275
-1.44172e-05
0.0400271
-2.44084e-05
0.0400282
-3.013e-05
0.0400248
-3.9497e-05
0.040025
-4.64095e-05
0.0400227
-5.07702e-05
0.0400179
-5.64818e-05
0.0400166
-6.1438e-05
0.0400128
-5.55262e-05
0.0400085
-5.66528e-05
0.0400137
-6.07009e-05
0.0400104
-5.95603e-05
0.0400066
-4.91141e-05
0.0400443
-5.12989e-05
0.0400137
-2.80751e-05
0.0399409
-4.52429e-05
0.0399597
-4.2833e-05
0.0399663
-3.88205e-05
0.0399729
-3.12033e-05
0.0400096
-2.20669e-05
0.0399688
-1.14923e-05
0.0399444
2.37898e-06
0.0399367
1.73588e-05
0.0399318
3.32091e-05
0.039928
4.96409e-05
0.0399251
6.65399e-05
0.0399241
8.2966e-05
0.0399259
9.75582e-05
0.0399416
0.000107311
0.039986
0.000120303
0.0399489
0.000133009
0.0399412
0.00014407
0.0399467
0.00015371
0.039954
0.000162012
0.0399618
0.000167522
0.0399712
0.000171046
0.0399798
0.000170643
0.0399883
0.000172419
0.0399945
0.000170511
0.0400042
0.000167088
0.0400113
0.00016031
0.0400178
0.000156359
0.0400215
0.000149428
0.0400285
0.000141679
0.0400328
0.000131274
0.0400364
0.000120344
0.0400433
0.000101034
0.0400696
9.14687e-05
0.0400894
8.76308e-05
0.0400469
8.76944e-05
0.040036
7.76841e-05
0.0400348
6.76465e-05
0.0400353
5.76132e-05
0.0400356
4.76026e-05
0.0400357
3.96269e-05
0.0400338
2.7682e-05
0.0400358
1.97728e-05
0.0400338
9.88443e-06
0.0400358
0.0400338
-9.41326e-06
0.040037
-1.87308e-05
0.0400364
-2.5854e-05
0.0400353
-3.66907e-05
0.0400357
-4.31292e-05
0.0400314
-5.10779e-05
0.0400306
-5.84184e-05
0.0400252
-6.50409e-05
0.0400232
-7.08269e-05
0.0400186
-7.56545e-05
0.0400133
-6.93962e-05
0.0400074
-6.99315e-05
0.0400109
-6.91597e-05
0.0400058
-3.29398e-05
0.040008
-5.49833e-05
0.0400358
-5.94654e-05
0.0399454
-6.01295e-05
0.0399603
-5.49578e-05
0.0399611
-4.38982e-05
0.0399618
-2.89386e-05
0.0399946
-2.81299e-05
0.039968
-1.56073e-05
0.0399319
4.91911e-07
0.0399206
1.79524e-05
0.0399143
3.6489e-05
0.0399095
5.57678e-05
0.0399058
7.53961e-05
0.0399044
9.47509e-05
0.0399066
0.00011241
0.039924
0.000124882
0.0399735
0.000140145
0.0399337
0.000155004
0.0399264
0.000168286
0.0399334
0.000178951
0.0399433
0.000186465
0.0399543
0.000192603
0.039965
0.000198358
0.0399741
0.000199831
0.0399869
0.000197164
0.0399972
0.000196539
0.0400049
0.000192164
0.0400157
0.00018626
0.0400237
0.00017906
0.0400287
0.000170763
0.0400368
0.000161581
0.0400419
0.000147705
0.0400502
0.000117305
0.0400737
9.45564e-05
0.0400924
0.000109475
0.0400745
0.000108217
0.0400482
9.88746e-05
0.0400454
8.75016e-05
0.0400461
7.61392e-05
0.0400466
6.682e-05
0.0400449
5.55506e-05
0.040047
4.23461e-05
0.040047
3.32036e-05
0.040045
2.01058e-05
0.0400469
1.10496e-05
0.0400449
0.0400449
-1.06689e-05
0.0400476
-2.12349e-05
0.040047
-3.15943e-05
0.0400457
-3.96389e-05
0.0400437
-5.12661e-05
0.0400431
-5.83523e-05
0.0400377
-6.87865e-05
0.0400357
-7.44311e-05
0.0400289
-8.1172e-05
0.0400253
-8.68568e-05
0.040019
-9.13466e-05
0.0400119
-8.44898e-05
0.0400041
-8.41448e-05
0.0400055
-7.61814e-05
0.0400001
-6.63462e-05
0.040026
-7.86175e-05
0.0399577
-7.48536e-05
0.0399566
-6.49597e-05
0.0399512
-4.88686e-05
0.0399457
-8.57657e-06
0.0399544
-2.1939e-05
0.0399813
-1.92745e-05
0.0399292
-2.72045e-06
0.039904
1.75008e-05
0.0398941
3.9066e-05
0.0398879
6.17698e-05
0.0398831
8.45396e-05
0.0398817
0.000107471
0.0398836
0.000128223
0.0399032
0.000143796
0.039958
0.000161885
0.0399156
0.00017942
0.0399088
0.000194317
0.0399185
0.000206958
0.0399306
0.000217361
0.0399439
0.000224094
0.0399583
0.000226004
0.0399721
0.000229232
0.0399836
0.00022795
0.0399985
0.000222408
0.0400104
0.000218876
0.0400193
0.000211627
0.0400309
0.000200937
0.0400394
0.000193075
0.0400447
0.000180284
0.0400547
0.000156768
0.0400737
0.000120804
0.0401097
0.000126391
0.0400868
0.000133737
0.0400671
0.000122971
0.040059
0.000110166
0.0400582
9.73745e-05
0.0400589
8.46557e-05
0.0400593
7.20204e-05
0.0400575
5.94833e-05
0.0400595
4.90494e-05
0.0400574
3.67023e-05
0.0400573
2.44278e-05
0.0400592
1.22058e-05
0.0400571
0.0400571
-1.20269e-05
0.0400597
-2.39449e-05
0.0400589
-3.56447e-05
0.0400574
-4.70135e-05
0.0400551
-5.59315e-05
0.040052
-6.62817e-05
0.0400481
-7.59312e-05
0.0400453
-8.47412e-05
0.0400377
-9.25673e-05
0.0400331
-9.92527e-05
0.0400257
-0.000102628
0.0400153
-0.000106541
0.040008
-0.0001008
0.0399997
-9.72772e-05
0.0399965
-6.17918e-05
0.0399905
-8.38841e-05
0.0399797
-8.77196e-05
0.0399604
-8.11276e-05
0.0399446
-6.79905e-05
0.0399326
-4.42288e-05
0.0399306
-4.17499e-05
0.0399789
-2.88212e-05
0.0399163
-7.5766e-06
0.0398828
1.573e-05
0.0398708
4.07225e-05
0.0398629
6.69132e-05
0.0398569
9.3744e-05
0.0398548
0.000120365
0.039857
0.000145134
0.0398785
0.000164324
0.0399388
0.000185684
0.0398942
0.000205826
0.0398887
0.000223425
0.0399009
0.000237566
0.0399165
0.000247122
0.0399343
0.000256419
0.039949
0.000260365
0.0399682
0.000259145
0.0399849
0.000259023
0.0399986
0.000254312
0.0400151
0.000245351
0.0400282
0.000238493
0.0400378
0.000228082
0.0400498
0.000216413
0.0400563
0.000197786
0.0400734
0.000172475
0.0400991
0.000158663
0.0401235
0.000162537
0.0400829
0.000150217
0.0400794
0.000135849
0.0400733
0.000121511
0.0400725
0.000107263
0.0400732
9.51499e-05
0.0400715
7.91775e-05
0.0400735
6.7366e-05
0.0400714
5.16921e-05
0.0400731
3.815e-05
0.0400709
2.67136e-05
0.0400706
1.33445e-05
0.0400704
0.0400704
-1.34927e-05
0.0400732
-2.48665e-05
0.0400703
-3.80206e-05
0.0400705
-5.08287e-05
0.0400679
-6.31686e-05
0.0400643
-7.49105e-05
0.0400598
-8.59149e-05
0.0400563
-9.60315e-05
0.0400478
-0.000105102
0.0400422
-0.000110949
0.0400315
-0.000119395
0.0400237
-0.00012424
0.0400128
-0.000125277
0.0400008
-0.000116307
0.0399876
-0.000111129
0.0399853
-0.000111376
0.03998
-0.000107032
0.0399561
-9.78641e-05
0.0399355
-8.57131e-05
0.0399205
-7.04788e-05
0.0399154
-5.80687e-05
0.0399664
-3.86942e-05
0.0398969
-1.44791e-05
0.0398585
1.22916e-05
0.039844
4.11821e-05
0.039834
7.16276e-05
0.0398264
0.000103125
0.0398233
0.000134313
0.0398258
0.000163347
0.0398494
0.000186774
0.0399153
0.000211925
0.0398691
0.000235501
0.0398651
0.00025551
0.0398809
0.000271558
0.0399005
0.000284281
0.0399216
0.000290076
0.0399432
0.000295885
0.0399624
0.000295982
0.0399848
0.000290722
0.0400038
0.000286516
0.0400193
0.000277812
0.0400369
0.000267012
0.0400486
0.000254546
0.0400623
0.00023479
0.0400761
0.000196098
0.0401121
0.000166808
0.0401283
0.000186994
0.0401033
0.000178933
0.040091
0.000162826
0.0400956
0.000148761
0.0400874
0.000132834
0.0400884
0.000117081
0.0400889
0.000101543
0.040087
8.62303e-05
0.0400888
7.11373e-05
0.0400864
5.82502e-05
0.040086
4.35305e-05
0.0400856
2.89449e-05
0.0400852
1.44557e-05
0.0400849
0.0400849
-1.50705e-05
0.0400882
-3.00245e-05
0.0400852
-4.47478e-05
0.0400853
-5.91181e-05
0.0400823
-7.30076e-05
0.0400782
-8.62804e-05
0.0400731
-9.67854e-05
0.0400668
-0.00010837
0.0400594
-0.000116848
0.0400507
-0.000128055
0.0400427
-0.000133758
0.0400295
-0.00013974
0.0400188
-0.000143781
0.0400048
-0.000145607
0.0399894
-0.000136962
0.0399766
-0.000133544
0.0399766
-0.000127167
0.0399497
-0.000117573
0.0399259
-0.000104525
0.0399074
-8.78511e-05
0.0398987
-7.14284e-05
0.03995
-5.141e-05
0.0398769
-2.39253e-05
0.0398311
6.73896e-06
0.0398134
4.00926e-05
0.0398007
7.54579e-05
0.0397911
0.000112007
0.0397868
0.000148751
0.0397891
0.00018309
0.0398151
0.000211494
0.0398869
0.000241109
0.0398395
0.000268282
0.0398379
0.000291224
0.039858
0.00030937
0.0398823
0.000323492
0.0399075
0.000331651
0.039935
0.000333081
0.039961
0.00033416
0.0399837
0.000329374
0.0400086
0.000321274
0.0400274
0.000310362
0.0400478
0.000297241
0.0400617
0.000280357
0.0400792
0.000246196
0.0401102
0.000201244
0.040157
0.000213614
0.040116
0.000211574
0.0401053
0.000193492
0.0401091
0.000179481
0.0401096
0.000159622
0.0401072
0.000144029
0.040104
0.000126743
0.0401062
0.000109768
0.040104
9.51158e-05
0.0401035
7.67503e-05
0.0401048
6.06575e-05
0.0401021
4.47893e-05
0.0401014
3.11016e-05
0.0400989
1.55274e-05
0.0401005
0.0401004
-1.47568e-05
0.040103
-3.34088e-05
0.0401039
-4.98239e-05
0.0401017
-6.38792e-05
0.0400963
-7.94557e-05
0.0400938
-9.4403e-05
0.040088
-0.000108582
0.040081
-0.000121809
0.0400726
-0.000133903
0.0400628
-0.000142656
0.0400515
-0.000153847
0.0400406
-0.000161219
0.0400262
-0.000164502
0.0400081
-0.000167392
0.0399923
-0.000165598
0.0399749
-0.000156741
0.0399677
-0.000152558
0.0399455
-0.00014073
0.039914
-0.000126934
0.0398936
-0.000106925
0.0398787
-7.25291e-05
0.0399156
-6.36344e-05
0.039868
-3.65454e-05
0.039804
-1.5025e-06
0.0397783
3.69724e-05
0.0397622
7.80884e-05
0.03975
0.000120816
0.0397441
0.000163766
0.0397461
0.000204604
0.0397743
0.000238993
0.0398525
0.00027391
0.0398046
0.000305489
0.0398064
0.000332029
0.0398314
0.000352439
0.0398619
0.000365542
0.0398944
0.000375853
0.0399247
0.000378547
0.0399583
0.000376158
0.0399861
0.000369355
0.0400154
0.000358799
0.040038
0.000345208
0.0400614
0.000327245
0.0400797
0.000305527
0.0401009
0.000270602
0.0401452
0.000260946
0.0401667
0.000248673
0.0401282
0.000230339
0.0401237
0.000208132
0.0401313
0.000192023
0.0401257
0.000174304
0.040125
0.000154998
0.0401233
0.000136138
0.0401251
0.000117723
0.0401224
9.97275e-05
0.0401215
8.41389e-05
0.0401204
6.6881e-05
0.0401194
4.99068e-05
0.0401184
3.11457e-05
0.0401177
1.65459e-05
0.0401151
0.040117
-1.85687e-05
0.0401215
-3.70253e-05
0.0401223
-5.32486e-05
0.0401179
-7.31362e-05
0.0401162
-8.85347e-05
0.0401092
-0.00010532
0.0401048
-0.000121331
0.040097
-0.000136389
0.0400877
-0.0001503
0.0400767
-0.000162834
0.040064
-0.000171765
0.0400496
-0.000180797
0.0400352
-0.000187616
0.0400149
-0.000191911
0.0399966
-0.000193268
0.0399762
-0.000191301
0.0399657
-0.000177648
0.0399319
-0.00016986
0.0399063
-0.000151582
0.0398753
-0.000124466
0.0398516
-5.83e-05
0.0398495
-6.6257e-05
0.0398759
-5.11544e-05
0.0397889
-1.31768e-05
0.0397404
3.11927e-05
0.0397178
7.90542e-05
0.0397021
0.000129154
0.039694
0.000179967
0.0396953
0.000228244
0.039726
0.000269819
0.039811
0.000311104
0.0397633
0.000348081
0.0397694
0.000378324
0.0398012
0.000401201
0.039839
0.000417383
0.0398782
0.000423528
0.0399186
0.00042698
0.0399548
0.00042053
0.0399925
0.000413008
0.040023
0.000397317
0.0400537
0.000382414
0.0400763
0.000357048
0.040105
0.000304017
0.0401539
0.000271999
0.0401772
0.000285087
0.0401536
0.000274006
0.0401393
0.000251053
0.0401466
0.000228466
0.0401539
0.000206234
0.0401479
0.000186597
0.0401446
0.000163559
0.0401464
0.000145134
0.0401435
0.000125291
0.0401422
0.000105999
0.0401407
8.72018e-05
0.0401392
6.88314e-05
0.0401377
5.28192e-05
0.0401344
3.50669e-05
0.0401354
1.74961e-05
0.0401327
0.0401345
-2.04884e-05
0.040142
-4.08703e-05
0.0401427
-6.10356e-05
0.0401381
-7.88627e-05
0.040134
-0.000100245
0.0401306
-0.000117017
0.0401216
-0.000135042
0.040115
-0.000152132
0.0401047
-0.000168084
0.0400927
-0.000182665
0.0400786
-0.00019561
0.0400625
-0.00020461
0.0400442
-0.000215329
0.0400256
-0.000219372
0.0400006
-0.000222304
0.0399791
-0.000221619
0.0399651
-0.000216879
0.0399271
-0.000199564
0.0398889
-0.000185105
0.0398609
-0.000163013
0.0398295
-0.000122872
0.0398093
-0.000103972
0.039857
-7.47279e-05
0.0397596
-2.92721e-05
0.0396949
2.19018e-05
0.0396667
7.77221e-05
0.0396463
0.000136663
0.039635
0.000196615
0.0396354
0.000254408
0.0396682
0.00030476
0.0397606
0.000353729
0.0397143
0.000396955
0.0397262
0.00043145
0.0397667
0.000457156
0.0398133
0.000474207
0.0398611
0.000481665
0.0399111
0.000481202
0.0399553
0.000473802
0.0399999
0.000460712
0.0400361
0.000443105
0.0400713
0.000418061
0.0401014
0.000376599
0.0401465
0.000319814
0.0402107
0.000325869
0.0401711
0.000319459
0.04016
0.000295282
0.0401635
0.000267561
0.0401743
0.000244393
0.040177
0.000221972
0.0401703
0.000196349
0.0401702
0.000175564
0.0401672
0.000153574
0.0401655
0.000132341
0.0401635
0.000111799
0.0401613
9.38771e-05
0.0401571
7.44662e-05
0.0401571
5.34704e-05
0.0401554
3.68113e-05
0.0401521
1.63516e-05
0.0401531
0.0401508
-2.25155e-05
0.0401646
-4.2925e-05
0.0401631
-6.71539e-05
0.0401623
-8.90683e-05
0.0401559
-0.000108551
0.04015
-0.000131491
0.0401445
-0.000149696
0.0401332
-0.000169035
0.0401241
-0.000185262
0.0401089
-0.000202156
0.0400955
-0.000217419
0.0400778
-0.000230757
0.0400576
-0.000241758
0.0400366
-0.000249997
0.0400089
-0.00025497
0.0399841
-0.0002541
0.0399642
-0.000250816
0.0399238
-0.000244465
0.0398826
-0.000224336
0.0398408
-0.00020174
0.0398069
-0.000169959
0.0397775
-0.000120428
0.0398075
-9.66822e-05
0.0397359
-5.10749e-05
0.0396493
7.95216e-06
0.0396076
7.32332e-05
0.039581
0.000142889
0.0395654
0.000214462
0.0395638
0.000283567
0.0395991
0.000344819
0.0396994
0.000403235
0.0396559
0.000453712
0.0396757
0.000493748
0.0397266
0.000522181
0.0397849
0.000537502
0.0398458
0.000545501
0.0399031
0.000540062
0.0399607
0.000530696
0.0400093
0.000508899
0.0400578
0.000480264
0.0400999
0.000448112
0.0401335
0.000409814
0.0401848
0.000390203
0.0402303
0.000371897
0.0401894
0.000345772
0.0401861
0.000312219
0.0401971
0.000281563
0.040205
0.000259667
0.0401989
0.000232913
0.0401971
0.000209312
0.0401938
0.000184783
0.0401917
0.000161279
0.040189
0.000138713
0.040186
0.000119017
0.040181
9.60317e-05
0.0401801
7.76853e-05
0.0401755
5.78285e-05
0.0401753
3.83487e-05
0.0401715
1.91192e-05
0.0401724
0.0401699
-2.46421e-05
0.0401892
-4.91989e-05
0.0401877
-7.15755e-05
0.0401847
-9.56937e-05
0.0401801
-0.000121446
0.0401758
-0.000142683
0.0401658
-0.000165283
0.0401558
-0.000187069
0.0401459
-0.00020783
0.0401296
-0.000227326
0.040115
-0.000245265
0.0400957
-0.000261302
0.0400736
-0.000273027
0.0400483
-0.000283948
0.0400198
-0.000289542
0.0399897
-0.000291159
0.0399658
-0.000291943
0.0399246
-0.000285242
0.0398759
-0.000272161
0.0398277
-0.000243728
0.0397784
-0.000205097
0.0397389
-0.000115525
0.0397179
-0.000112869
0.0397332
-7.8396e-05
0.0396148
-1.22754e-05
0.0395415
6.43058e-05
0.0395044
0.000147241
0.0394824
0.000232616
0.0394784
0.000316314
0.0395154
0.000391191
0.0396245
0.00046132
0.0395858
0.000521053
0.039616
0.000566807
0.0396809
0.000597764
0.0397539
0.000615026
0.0398285
0.000618412
0.0398997
0.000610665
0.0399685
0.000589791
0.0400302
0.000551911
0.0400957
0.000498898
0.0401529
0.000446648
0.0401858
0.000414482
0.040217
0.000427144
0.0402177
0.000401943
0.0402146
0.000367574
0.0402205
0.000332357
0.0402323
0.000302393
0.040235
0.000273819
0.0402275
0.000246779
0.0402241
0.000219193
0.0402214
0.000192984
0.0402179
0.000168049
0.0402139
0.000146273
0.0402078
0.000121487
0.0402058
0.000101593
0.0402
7.84011e-05
0.0401987
5.98082e-05
0.0401939
3.76278e-05
0.0401937
1.97552e-05
0.0401902
0.0401897
-2.6856e-05
0.040216
-5.3644e-05
0.0402145
-8.02904e-05
0.0402113
-0.000106729
0.0402065
-0.000130845
0.0401999
-0.000156555
0.0401915
-0.000181716
0.040181
-0.000206158
0.0401703
-0.000229715
0.0401532
-0.000252116
0.0401374
-0.000271073
0.0401147
-0.000290228
0.0400927
-0.000307191
0.0400653
-0.000321413
0.040034
-0.000330324
0.0399986
-0.00032924
0.0399647
-0.000334826
0.0399302
-0.000334631
0.0398757
-0.000323456
0.0398165
-0.000304059
0.039759
-0.00026518
0.0397
-0.000213392
0.0396661
-0.000174836
0.0396947
-0.000117524
0.0395575
-4.0899e-05
0.0394649
4.91082e-05
0.0394144
0.000148181
0.0393834
0.000251776
0.0393748
0.000353621
0.0394135
0.00044628
0.0395318
0.000531012
0.039501
0.000601473
0.0395455
0.000654203
0.0396282
0.000687709
0.0397204
0.000703231
0.039813
0.000700095
0.0399029
0.000684118
0.0399844
0.000643891
0.0400704
0.000597922
0.0401417
0.000562889
0.0401879
0.000509031
0.0402396
0.000489523
0.0402365
0.000467872
0.0402393
0.000431342
0.0402512
0.000388351
0.0402635
0.000347232
0.0402734
0.000317816
0.0402644
0.000286481
0.0402588
0.000255152
0.0402554
0.000225668
0.0402509
0.000199902
0.0402437
0.000173653
0.0402402
0.000148786
0.0402327
0.000125093
0.0402295
0.000102406
0.0402227
8.25585e-05
0.0402185
5.93439e-05
0.0402171
4.06395e-05
0.0402124
2.02478e-05
0.0402106
0.0402099
-2.91415e-05
0.0402452
-5.82364e-05
0.0402436
-8.72363e-05
0.0402403
-0.000114072
0.0402333
-0.000142697
0.0402285
-0.000171012
0.0402198
-0.000200914
0.0402109
-0.000226232
0.0401956
-0.000252815
0.0401798
-0.00027642
0.040161
-0.000302785
0.040141
-0.000323528
0.0401135
-0.000344212
0.040086
-0.000362342
0.0400521
-0.000377215
0.0400135
-0.000384075
0.0399716
-0.000391691
0.0399378
-0.000391182
0.0398752
-0.000383228
0.0398085
-0.000366169
0.039742
-0.000338256
0.0396721
-0.000287666
0.0396156
-0.000226204
0.0396332
-0.000169786
0.0395011
-8.09353e-05
0.039376
2.55682e-05
0.0393079
0.00014435
0.0392646
0.000270448
0.0392487
0.000397307
0.0392867
0.000513275
0.0394159
0.000614647
0.0393996
0.000698896
0.0394612
0.000759167
0.0395679
0.000794185
0.0396854
0.000804586
0.0398026
0.000795971
0.0399115
0.000755685
0.0400247
0.000703581
0.0401225
0.000665164
0.0401801
0.00062969
0.0402234
0.000588193
0.0402811
0.000548319
0.0402764
0.000501732
0.0402859
0.000455242
0.0402977
0.000409246
0.0403095
0.000369879
0.0403128
0.000333174
0.0403011
0.000299177
0.0402928
0.000265665
0.040289
0.00023443
0.0402821
0.00020525
0.0402728
0.000177886
0.0402675
0.000152105
0.0402584
0.000129692
0.0402519
0.000104389
0.040248
8.20275e-05
0.0402409
6.24042e-05
0.0402367
4.13146e-05
0.0402335
2.05774e-05
0.0402314
0.0402305
-3.1478e-05
0.0402767
-6.09209e-05
0.040273
-9.23353e-05
0.0402717
-0.000125688
0.0402667
-0.000156909
0.0402598
-0.00018795
0.0402508
-0.000216715
0.0402397
-0.000247111
0.040226
-0.000276959
0.0402096
-0.000306099
0.0401902
-0.000332218
0.0401672
-0.000361015
0.0401423
-0.000384029
0.040109
-0.000406713
0.0400748
-0.000426428