/*--------------------------------*- C++ -*----------------------------------*\
  =========                 |
  \\      /  F ield         | OpenFOAM: The Open Source CFD Toolbox
   \\    /   O peration     | Website:  https://openfoam.org
    \\  /    A nd           | Version:  12
     \\/     M anipulation  |
\*---------------------------------------------------------------------------*/
FoamFile
{
    format      ascii;
    class       volVectorField;
    location    "500";
    object      U;
}
// * * * * * * * * * * * * * * * * * * * * * * * * * * * * * * * * * * * * * //

dimensions      [0 1 -1 0 0 0 0];

internalField   nonuniform List<vector> 
16227
(
(2 -8.06337e-06 -9.79928e-23)
(2 -2.41006e-05 9.84231e-23)
(2 -3.98932e-05 -9.84245e-23)
(2 -5.52998e-05 -9.89952e-23)
(2 -7.01561e-05 9.89967e-23)
(2 -8.42961e-05 9.98988e-23)
(2 -9.75679e-05 5.86851e-25)
(2 -0.000109803 -2.01582e-22)
(2 -0.000120831 3.04799e-22)
(2 -0.000130484 -2.03675e-22)
(2 -0.000138597 0)
(2 -0.000145023 2.07756e-22)
(2 -0.000149609 0)
(2 -0.000152227 0)
(2 -0.000152739 0)
(2 -0.000151045 0)
(2 -0.000147069 0)
(2 -0.000140768 0)
(2 -0.000132133 0)
(2 -0.000121198 0)
(2 -0.000108041 -2.23203e-22)
(2 -9.27889e-05 -9.9172e-25)
(2 -7.5618e-05 2.24192e-22)
(2 -5.67568e-05 0)
(2 -3.64807e-05 -2.25755e-22)
(2 -1.51068e-05 2.25753e-22)
(2 7.01294e-06 0)
(2 2.94936e-05 1.12675e-22)
(2 5.19485e-05 0)
(2 7.39899e-05 0)
(2 9.5238e-05 0)
(2 0.000115321 0)
(2 0.000133899 0)
(2 0.000150703 2.15918e-22)
(2 0.000165501 -2.26729e-24)
(2 0.000178125 -2.13646e-22)
(2 0.000188455 0)
(2 0.000196438 2.06042e-22)
(2 0.000202069 -2.70182e-24)
(2 0.000205397 -2.0334e-22)
(2 0.00020651 0)
(2 0.000205533 0)
(2 0.000202613 0)
(2 0.000197921 0)
(2 0.000191632 0)
(2 0.000183927 0)
(2 0.000174988 0)
(2 0.000164999 0)
(2 0.000154114 0)
(2 0.000142474 0)
(2 0.000130223 0)
(2 0.000117478 0)
(2 0.000104361 0)
(2 9.0934e-05 0)
(2 7.72573e-05 -8.48747e-23)
(2 6.33966e-05 8.48782e-23)
(2 4.94146e-05 0)
(2 3.53596e-05 0)
(2 2.12576e-05 0)
(2 7.1013e-06 8.35658e-23)
(2.00004 -2.67445e-05 1.93404e-25)
(2.00004 -7.99208e-05 0)
(2.00004 -0.000132156 0)
(2.00003 -0.000182908 0)
(2.00003 -0.000231521 -1.67478e-22)
(2.00003 -0.000277398 0)
(2.00003 -0.000319923 0)
(2.00003 -0.000358479 -5.12042e-22)
(2.00002 -0.000392424 3.41824e-22)
(2.00002 -0.000421143 -6.93897e-22)
(2.00002 -0.000444015 2.78917e-21)
(2.00001 -0.000460471 -1.75347e-21)
(2.00001 -0.000470005 8.82709e-22)
(2 -0.00047213 0)
(2 -0.000466393 0)
(1.99999 -0.000452457 0)
(1.99999 -0.000430076 0)
(1.99998 -0.00039914 0)
(1.99998 -0.000359678 0)
(1.99997 -0.000311877 0)
(1.99997 -0.000256094 0)
(1.99996 -0.000192884 0)
(1.99996 -0.000122992 0)
(1.99995 -4.7342e-05 0)
(1.99995 3.29655e-05 0)
(1.99995 0.000116675 -3.82062e-22)
(1.99995 0.00020241 3.82044e-22)
(1.99995 0.00028869 -1.90505e-22)
(1.99995 0.000374019 0)
(1.99995 0.000456921 0)
(1.99995 0.000535937 0)
(1.99995 0.000609702 0)
(1.99996 0.000676987 0)
(1.99996 0.000736798 0)
(1.99997 0.000788317 0)
(1.99997 0.000830978 -3.57243e-22)
(1.99998 0.000864411 4.33903e-24)
(1.99999 0.000888472 4.4973e-24)
(1.99999 0.000903252 4.60407e-24)
(2 0.000909001 3.43789e-22)
(2 0.000906142 3.34461e-22)
(2.00001 0.000895217 -3.34463e-22)
(2.00001 0.000876859 0)
(2.00001 0.000851779 0)
(2.00002 0.000820695 0)
(2.00002 0.000784328 0)
(2.00002 0.000743403 0)
(2.00003 0.000698624 0)
(2.00003 0.000650608 0)
(2.00003 0.000599935 0)
(2.00003 0.000547128 2.95453e-22)
(2.00003 0.000492624 -5.89314e-22)
(2.00003 0.000436856 -5.81082e-22)
(2.00003 0.000380087 5.811e-22)
(2.00003 0.000322516 -5.73649e-22)
(2.00003 0.000264401 8.59045e-22)
(2.00003 0.000205944 -2.85505e-22)
(2.00003 0.000147267 1.41839e-22)
(2.00003 8.84675e-05 -1.41843e-22)
(2.00003 2.95416e-05 -1.85185e-25)
(2.00011 -4.52691e-05 1.65267e-22)
(2.0001 -0.000135263 0)
(2.0001 -0.000223552 0)
(2.0001 -0.000309145 0)
(2.00009 -0.000390865 1.6747e-22)
(2.00009 -0.000467611 -3.37244e-22)
(2.00008 -0.000538294 -2.03732e-24)
(2.00007 -0.000601777 5.09386e-22)
(2.00006 -0.000656927 1.71206e-22)
(2.00005 -0.000702633 6.9351e-22)
(2.00004 -0.000737798 -6.90783e-22)
(2.00003 -0.000761319 -1.40121e-21)
(2.00001 -0.000772345 1.76963e-22)
(2 -0.000770073 0)
(1.99998 -0.000753638 1.80267e-22)
(1.99996 -0.000722462 0)
(1.99995 -0.000676142 0)
(1.99993 -0.000614502 0)
(1.99991 -0.000537639 -7.47566e-22)
(1.9999 -0.000445928 7.47522e-22)
(1.99988 -0.000340056 -3.78311e-22)
(1.99987 -0.000221066 3.7829e-22)
(1.99986 -9.03641e-05 0)
(1.99985 5.03236e-05 -3.82356e-22)
(1.99984 0.000198943 -5.05035e-25)
(1.99983 0.00035317 3.82805e-22)
(1.99983 0.00051046 0)
(1.99983 0.000668091 0)
(1.99983 0.000823319 0)
(1.99984 0.0009734 0)
(1.99985 0.00111569 1.86747e-22)
(1.99986 0.00124768 -3.75442e-22)
(1.99987 0.00136723 0)
(1.99989 0.00147254 0)
(1.99991 0.00156217 3.61669e-22)
(1.99992 0.00163516 -3.61646e-22)
(1.99994 0.00169089 0)
(1.99996 0.0017292 0)
(1.99998 0.00175032 0)
(2 0.00175478 0)
(2.00001 0.00174344 0)
(2.00003 0.00171737 0)
(2.00004 0.00167779 -1.63542e-22)
(2.00006 0.00162604 0)
(2.00007 0.00156347 0)
(2.00008 0.00149143 0)
(2.00008 0.0014113 -1.53247e-22)
(2.00009 0.00132436 3.08113e-22)
(2.0001 0.00123172 0)
(2.0001 0.00113448 1.49473e-22)
(2.00011 0.00103357 0)
(2.00011 0.000929812 2.93772e-22)
(2.00011 0.000823918 5.80112e-22)
(2.00011 0.000716333 1.40243e-22)
(2.00011 0.000607471 -5.76059e-22)
(2.00011 0.000497802 2.84904e-22)
(2.00011 0.000387619 -2.85006e-22)
(2.00012 0.000277092 0)
(2.00012 0.000166402 0)
(2.00012 5.55476e-05 -1.4091e-22)
(2.00021 -6.41235e-05 0)
(2.00021 -0.000191589 0)
(2.00021 -0.000316572 -1.6546e-22)
(2.0002 -0.000437617 0)
(2.00019 -0.000553004 -1.67353e-22)
(2.00018 -0.000661141 1.67346e-22)
(2.00016 -0.000760412 0)
(2.00014 -0.00084918 -5.12135e-22)
(2.00012 -0.000925769 5.10568e-22)
(2.0001 -0.000988558 0)
(2.00007 -0.00103596 -6.98583e-22)
(2.00005 -0.00106629 -2.10539e-21)
(2.00002 -0.00107837 -3.54009e-22)
(1.99998 -0.00107098 0)
(1.99995 -0.00104284 -1.80247e-22)
(1.99992 -0.000993103 0)
(1.99988 -0.000921167 0)
(1.99984 -0.000826791 1.48681e-21)
(1.99981 -0.000710111 -1.48678e-21)
(1.99978 -0.00057162 0)
(1.99974 -0.000412357 -3.79246e-22)
(1.99971 -0.000233948 -1.88238e-24)
(1.99969 -3.84481e-05 -1.48127e-24)
(1.99967 0.000171564 3.82564e-22)
(1.99965 0.000393017 0)
(1.99964 0.00062241 0)
(1.99964 0.000855935 0)
(1.99964 0.00108951 1.91313e-22)
(1.99965 0.00131901 1.54927e-25)
(1.99966 0.00154038 1.8944e-22)
(1.99968 0.00174961 -8.68884e-25)
(1.99971 0.00194299 0)
(1.99974 0.00211732 0)
(1.99977 0.00226999 0)
(1.99981 0.0023989 -3.62258e-22)
(1.99985 0.00250266 4.34808e-24)
(1.99989 0.00258045 4.56195e-24)
(1.99993 0.00263218 4.71908e-24)
(1.99997 0.00265823 6.92305e-22)
(2 0.00265948 -3.4372e-22)
(2.00004 0.00263731 0)
(2.00007 0.00259339 -1.65722e-22)
(2.0001 0.00252962 1.63473e-22)
(2.00013 0.002448 0)
(2.00015 0.00235063 0)
(2.00017 0.0022396 0)
(2.00019 0.0021169 -1.54786e-22)
(2.0002 0.00198445 0)
(2.00022 0.00184393 0)
(2.00022 0.00169694 -2.98389e-22)
(2.00023 0.00154486 -5.88012e-22)
(2.00024 0.00138885 1.17079e-21)
(2.00024 0.00122997 -5.83011e-22)
(2.00025 0.00106872 -7.18596e-22)
(2.00025 0.000905903 5.74326e-22)
(2.00025 0.000742108 0)
(2.00025 0.000577701 0)
(2.00025 0.000412875 1.40986e-22)
(2.00025 0.000247895 0)
(2.00025 8.27327e-05 0)
(2.00036 -8.36974e-05 0)
(2.00036 -0.000250073 0)
(2.00035 -0.000413182 6.94408e-25)
(2.00033 -0.000571097 0)
(2.00032 -0.00072157 0)
(2.00029 -0.000862487 -3.34594e-22)
(2.00027 -0.000991694 -5.07461e-22)
(2.00024 -0.00110704 5.05497e-22)
(2.0002 -0.0012063 0)
(2.00016 -0.00128732 0)
(2.00012 -0.00134798 -6.97599e-22)
(2.00007 -0.00138598 4.20453e-21)
(2.00002 -0.00139976 -3.52339e-22)
(1.99996 -0.00138765 3.55415e-22)
(1.9999 -0.00134792 0)
(1.99984 -0.0012794 0)
(1.99978 -0.00118123 7.38513e-22)
(1.99972 -0.00105309 2.23745e-21)
(1.99966 -0.000895042 -1.11547e-21)
(1.9996 -0.00070763 0)
(1.99954 -0.00049225 0)
(1.99949 -0.000251237 0)
(1.99945 1.27689e-05 0)
(1.99941 0.000296254 -3.8536e-22)
(1.99939 0.000595077 -6.52336e-25)
(1.99937 0.000904465 -1.21752e-25)
(1.99936 0.00121923 3.8596e-22)
(1.99937 0.00153379 1.93163e-22)
(1.99938 0.00184248 9.9479e-27)
(1.99941 0.00213976 -1.91306e-22)
(1.99945 0.00242013 5.68366e-22)
(1.99949 0.00267852 -3.78075e-22)
(1.99955 0.00291063 -3.714e-22)
(1.99961 0.00311291 3.71351e-22)
(1.99967 0.0032826 3.63108e-22)
(1.99974 0.00341785 -3.63068e-22)
(1.99981 0.00351769 0)
(1.99988 0.00358206 0)
(1.99995 0.00361168 -3.43782e-22)
(2.00002 0.00360785 3.43773e-22)
(2.00008 0.00357254 3.33685e-22)
(2.00014 0.00350818 -1.68034e-22)
(2.00019 0.00341739 0)
(2.00024 0.00330294 0)
(2.00028 0.00316781 0)
(2.00031 0.00301479 0)
(2.00034 0.00284663 0)
(2.00036 0.0026659 0)
(2.00039 0.0024749 -1.50042e-22)
(2.0004 0.00227571 -7.39279e-22)
(2.00041 0.00207021 5.91543e-22)
(2.00042 0.00185993 5.80494e-22)
(2.00043 0.00164612 -8.68902e-22)
(2.00044 0.00142948 5.71856e-22)
(2.00044 0.00121118 -5.71893e-22)
(2.00044 0.000991843 0)
(2.00044 0.000771893 0)
(2.00045 0.000551535 -6.7477e-25)
(2.00045 0.000331089 0)
(2.00045 0.000110478 0)
(2.00055 -0.000104284 -1.62761e-22)
(2.00054 -0.000311589 0)
(2.00053 -0.00051485 1.12429e-25)
(2.00051 -0.000711663 1.64623e-22)
(2.00048 -0.000899254 0)
(2.00045 -0.00107498 7.64265e-25)
(2.00041 -0.00123614 -3.36354e-22)
(2.00036 -0.00138002 3.36291e-22)
(2.0003 -0.00150389 0)
(2.00024 -0.00160499 0)
(2.00017 -0.00168064 3.46009e-22)
(2.0001 -0.00172797 1.39791e-21)
(2.00002 -0.00174474 -7.06849e-22)
(1.99993 -0.00172885 3.56892e-22)
(1.99984 -0.00167822 0)
(1.99975 -0.00159118 -3.66301e-22)
(1.99965 -0.00146658 3.66472e-22)
(1.99956 -0.00130393 8.38077e-24)
(1.99946 -0.00110309 -1.68101e-21)
(1.99937 -0.000864625 -3.79474e-22)
(1.99929 -0.000590293 3.79388e-22)
(1.99921 -0.000283182 -2.24523e-24)
(1.99914 5.3574e-05 3.84576e-22)
(1.99908 0.000415444 0)
(1.99904 0.000797101 0)
(1.99901 0.0011924 0)
(1.999 0.00159457 0)
(1.99901 0.00199637 -1.93158e-22)
(1.99904 0.00239041 0)
(1.99908 0.00276946 0)
(1.99914 0.00312635 5.72828e-22)
(1.99922 0.00345441 -3.8011e-22)
(1.9993 0.0037481 0)
(1.9994 0.00400292 0)
(1.9995 0.00421532 0)
(1.99961 0.00438303 0)
(1.99972 0.00450495 3.54342e-22)
(1.99983 0.00458113 -5.17323e-24)
(1.99994 0.0046127 -5.2244e-22)
(2.00004 0.00460158 0)
(2.00014 0.00455042 0)
(2.00023 0.0044625 3.28125e-22)
(2.00031 0.00434133 -4.90754e-22)
(2.00038 0.00419067 0)
(2.00044 0.00401432 0)
(2.00049 0.00381595 0)
(2.00054 0.00359912 0)
(2.00058 0.0033671 0)
(2.00061 0.00312283 4.47556e-22)
(2.00063 0.00286896 1.17591e-21)
(2.00065 0.00260779 -1.17696e-21)
(2.00066 0.0023412 5.7744e-22)
(2.00068 0.00207049 -2.89319e-22)
(2.00068 0.00179693 0)
(2.00069 0.00152181 1.41285e-22)
(2.00069 0.00124573 0)
(2.00069 0.000969147 0)
(2.00069 0.000692311 -1.40271e-22)
(2.0007 0.000415517 0)
(2.0007 0.000138626 1.38528e-22)
(2.00078 -0.000126139 1.08307e-24)
(2.00077 -0.000376915 0)
(2.00075 -0.000622873 0)
(2.00072 -0.000861145 -1.6338e-22)
(2.00068 -0.00108843 0)
(2.00063 -0.00130153 1.6606e-22)
(2.00057 -0.00149724 -1.67398e-22)
(2.00051 -0.00167222 3.34975e-22)
(2.00043 -0.00182321 0)
(2.00034 -0.00194683 -6.87601e-22)
(2.00024 -0.00203982 3.41673e-22)
(2.00013 -0.00209871 6.20709e-24)
(2.00002 -0.00212033 1.41608e-21)
(1.9999 -0.00210227 -7.15462e-22)
(1.99977 -0.00204198 -3.97641e-24)
(1.99963 -0.00193716 -1.88288e-22)
(1.99949 -0.00178637 3.70327e-21)
(1.99936 -0.00158863 -1.46954e-21)
(1.99922 -0.00134347 -2.44316e-21)
(1.99909 -0.00105173 3.41956e-21)
(1.99896 -0.000715274 3.83576e-22)
(1.99885 -0.000337996 -3.87031e-22)
(1.99875 7.65582e-05 -2.02929e-24)
(1.99867 0.000522699 3.88922e-22)
(1.99861 0.000993859 0)
(1.99857 0.00148232 0)
(1.99856 0.00197958 0)
(1.99857 0.00247647 0)
(1.99861 0.00296361 1.95421e-22)
(1.99867 0.00343182 0)
(1.99876 0.00387197 -5.7587e-22)
(1.99887 0.00427561 0)
(1.999 0.00463574 3.75084e-22)
(1.99914 0.00494672 -3.74999e-22)
(1.99929 0.00520419 3.6565e-22)
(1.99945 0.00540555 -5.12079e-24)
(1.99962 0.00554952 -7.15505e-22)
(1.99978 0.00563638 3.55037e-22)
(1.99993 0.00566787 -1.70678e-22)
(2.00008 0.0056466 3.43923e-22)
(2.00022 0.00557619 1.67705e-22)
(2.00035 0.00546088 0)
(2.00046 0.00530527 1.62526e-22)
(2.00056 0.00511421 0)
(2.00065 0.0048925 0)
(2.00073 0.00464481 1.54602e-22)
(2.00079 0.00437552 -1.52362e-22)
(2.00084 0.00408873 0)
(2.00088 0.00378795 1.77675e-21)
(2.00092 0.00347651 1.15636e-21)
(2.00094 0.00315717 -2.3408e-21)
(2.00096 0.00283202 -5.7378e-22)
(2.00098 0.0025025 1.28525e-21)
(2.00099 0.00217051 -5.69166e-22)
(2.00099 0.0018372 -1.41253e-22)
(2.001 0.00150319 0)
(2.001 0.00116899 2.78073e-22)
(2.001 0.000834835 -1.39208e-22)
(2.001 0.000500954 0)
(2.001 0.000167106 -9.83761e-25)
(2.00105 -0.000149521 1.61662e-22)
(2.00104 -0.000446848 0)
(2.00101 -0.000738612 0)
(2.00097 -0.00102145 1.62296e-22)
(2.00092 -0.00129158 -9.12519e-25)
(2.00086 -0.00154525 1.64094e-22)
(2.00078 -0.00177871 -1.65219e-22)
(2.00068 -0.00198802 -5.03396e-22)
(2.00058 -0.00216932 3.35776e-22)
(2.00046 -0.00231861 -6.85028e-22)
(2.00032 -0.00243195 -1.79348e-22)
(2.00018 -0.0025053 1.04035e-21)
(2.00002 -0.00253462 -2.82034e-21)
(1.99985 -0.00251659 -1.43416e-21)
(1.99968 -0.00244825 1.43471e-21)
(1.99949 -0.00232687 -1.82571e-22)
(1.9993 -0.00215042 4.45262e-21)
(1.99911 -0.00191731 -7.35741e-22)
(1.99893 -0.00162659 -7.54075e-22)
(1.99874 -0.00127926 -2.28545e-21)
(1.99857 -0.000877161 3.89197e-22)
(1.99842 -0.00042501 0)
(1.99828 7.32281e-05 0)
(1.99817 0.000610686 -3.93816e-22)
(1.99808 0.00117942 -1.10056e-24)
(1.99803 0.00176993 3.94712e-22)
(1.99801 0.00237174 0)
(1.99803 0.00297344 3.93554e-22)
(1.99808 0.0035633 -5.88744e-22)
(1.99817 0.00412989 0)
(1.9983 0.00466174 1.89218e-22)
(1.99845 0.00514823 -7.67769e-22)
(1.99863 0.00558078 4.32059e-24)
(1.99883 0.00595242 7.50133e-22)
(1.99904 0.0062579 -5.20346e-24)
(1.99927 0.00649417 -3.6727e-22)
(1.99949 0.00666001 0)
(1.99972 0.00675606 3.50001e-22)
(1.99993 0.00678478 -5.9437e-24)
(2.00014 0.00674977 -3.44005e-22)
(2.00033 0.00665579 -3.35081e-22)
(2.0005 0.00650837 0)
(2.00065 0.00631332 0)
(2.00079 0.0060768 -1.58806e-22)
(2.00091 0.0058048 0)
(2.00101 0.00550304 -3.08216e-22)
(2.0011 0.0051769 1.52282e-22)
(2.00116 0.00483128 -2.98468e-22)
(2.00122 0.00447047 -1.77073e-21)
(2.00126 0.00409829 -1.16109e-21)
(2.0013 0.00371804 5.86096e-22)
(2.00132 0.00333169 -5.52852e-24)
(2.00134 0.00294151 -8.53e-22)
(2.00135 0.00254951 2.81221e-22)
(2.00136 0.00215662 0)
(2.00136 0.0017636 0)
(2.00136 0.00137092 -1.14592e-24)
(2.00136 0.000978723 0)
(2.00136 0.000587166 0)
(2.00136 0.000195837 -1.37507e-22)
(2.00137 -0.000174702 0)
(2.00136 -0.000522174 0)
(2.00132 -0.000863344 1.60037e-22)
(2.00127 -0.00119443 -1.62114e-22)
(2.0012 -0.00151111 0)
(2.00112 -0.00180911 -3.26658e-22)
(2.00102 -0.00208414 1.63815e-22)
(2.0009 -0.00233168 1.65342e-22)
(2.00076 -0.00254717 0)
(2.0006 -0.00272598 0)
(2.00043 -0.00286343 -5.18244e-22)
(2.00024 -0.00295482 3.42459e-22)
(2.00003 -0.00299531 1.41525e-21)
(1.99981 -0.00298023 4.27446e-21)
(1.99958 -0.00290631 0)
(1.99933 -0.00277036 -7.32346e-22)
(1.99908 -0.00256929 -2.96431e-21)
(1.99883 -0.00230092 -7.52344e-22)
(1.99858 -0.00196354 -1.52191e-21)
(1.99834 -0.00155823 3.7761e-22)
(1.99811 -0.00108659 -7.77212e-22)
(1.9979 -0.000554251 -3.22161e-24)
(1.99772 3.45182e-05 -2.66672e-24)
(1.99756 0.00067167 3.95838e-22)
(1.99745 0.00134765 0)
(1.99738 0.00205103 0)
(1.99735 0.00276894 0)
(1.99738 0.0034874 2.00649e-22)
(1.99745 0.0041919 -1.99771e-22)
(1.99757 0.00486824 0)
(1.99774 0.00550218 3.85212e-22)
(1.99795 0.00608052 -3.89495e-22)
(1.99819 0.00659275 0)
(1.99846 0.00703042 0)
(1.99875 0.0073873 5.56233e-22)
(1.99905 0.00765985 -3.69278e-22)
(1.99935 0.00784708 -3.56965e-22)
(1.99965 0.00795019 7.07434e-22)
(1.99994 0.00797261 -3.5047e-22)
(2.00021 0.00791925 0)
(2.00046 0.00779629 4.9882e-22)
(2.00069 0.00761083 -3.31455e-22)
(2.00089 0.00737025 -1.60883e-22)
(2.00107 0.00708214 3.16673e-22)
(2.00123 0.00675391 0)
(2.00135 0.00639249 1.53615e-22)
(2.00146 0.00600432 -3.00457e-22)
(2.00155 0.00559518 2.9829e-22)
(2.00162 0.00517018 -1.15356e-21)
(2.00167 0.00473379 6.01326e-22)
(2.00171 0.00428949 2.8912e-22)
(2.00174 0.00383946 1.41099e-22)
(2.00176 0.00338671 -1.41131e-22)
(2.00177 0.00293295 -1.39978e-22)
(2.00178 0.00247918 2.75768e-22)
(2.00178 0.00202616 -7.20126e-25)
(2.00178 0.00157426 -2.75045e-22)
(2.00178 0.0011235 1.3591e-22)
(2.00178 0.000673844 0)
(2.00178 0.000224705 0)
(2.00175 -0.000201914 0)
(2.00173 -0.000603593 0)
(2.00168 -0.000998291 -3.18321e-22)
(2.00162 -0.00138179 0)
(2.00154 -0.00174929 0)
(2.00143 -0.00209598 1.50734e-24)
(2.0013 -0.00241702 0)
(2.00115 -0.00270732 -1.65699e-22)
(2.00097 -0.00296161 -1.6779e-22)
(2.00077 -0.00317452 1.67547e-22)
(2.00055 -0.00334067 -6.87063e-22)
(2.00031 -0.0034545 6.87116e-22)
(2.00005 -0.00351032 0)
(1.99977 -0.00350219 -4.25665e-21)
(1.99947 -0.00342614 -7.00767e-22)
(1.99916 -0.00327844 7.63337e-22)
(1.99883 -0.00305447 -4.44462e-21)
(1.99851 -0.0027512 1.51121e-21)
(1.99818 -0.00236631 -7.58815e-22)
(1.99787 -0.00190071 0)
(1.99757 -0.00135543 -7.86132e-22)
(1.99729 -0.000736903 0)
(1.99705 -4.96349e-05 -4.00368e-22)
(1.99685 0.000696997 4.00254e-22)
(1.9967 0.0014918 -4.04135e-22)
(1.99661 0.00232102 2.00217e-22)
(1.99657 0.00316914 0)
(1.9966 0.00401898 -2.00677e-22)
(1.9967 0.00485267 6.04925e-22)
(1.99686 0.00565278 2.01023e-22)
(1.99708 0.00640158 -3.99045e-22)
(1.99736 0.00708275 -1.92662e-22)
(1.99768 0.00768349 3.89231e-22)
(1.99804 0.00819353 0)
(1.99842 0.00860563 1.84933e-22)
(1.99881 0.00891582 -6.57956e-24)
(1.9992 0.00912343 -6.80305e-24)
(1.99959 0.00923057 -3.58e-22)
(1.99996 0.00924198 3.44098e-22)
(2.00031 0.00916432 -5.14288e-22)
(2.00064 0.00900555 1.66716e-22)
(2.00093 0.00877471 0)
(2.00118 0.00848108 1.60782e-22)
(2.00141 0.008134 -1.57859e-22)
(2.0016 0.00774246 0)
(2.00176 0.00731481 0)
(2.00189 0.00685868 3.00272e-22)
(2.002 0.00638085 -2.63492e-24)
(2.00208 0.00588706 -1.58707e-23)
(2.00215 0.00538257 1.15049e-21)
(2.00219 0.00487056 2.8491e-22)
(2.00222 0.00435434 1.39541e-22)
(2.00224 0.00383689 1.38459e-22)
(2.00226 0.0033197 -1.05722e-24)
(2.00226 0.00280382 -1.3895e-22)
(2.00226 0.00228997 0)
(2.00226 0.00177828 0)
(2.00226 0.00126859 -2.70289e-22)
(2.00226 0.000760668 0)
(2.00226 0.000253614 0)
(2.00218 -0.000231374 0)
(2.00215 -0.000691788 0)
(2.0021 -0.00114457 5.29278e-25)
(2.00202 -0.00158515 1.57723e-22)
(2.00192 -0.00200823 0)
(2.00179 -0.00240854 1.61065e-22)
(2.00163 -0.00278065 1.62543e-22)
(2.00144 -0.0031189 1.78523e-24)
(2.00123 -0.00341732 1.58197e-24)
(2.00098 -0.00366982 -1.68489e-22)
(2.00071 -0.0038701 1.68497e-22)
(2.00041 -0.00401172 1.71659e-22)
(2.00008 -0.00408816 -3.48816e-22)
(1.99973 -0.00409222 -2.83631e-21)
(1.99935 -0.00401826 -7.32821e-22)
(1.99896 -0.00386205 2.92414e-21)
(1.99856 -0.00361775 2.24011e-21)
(1.99814 -0.00328087 -1.51396e-21)
(1.99773 -0.00284825 1.53668e-21)
(1.99733 -0.00232032 2.35516e-21)
(1.99695 -0.00169704 3.89057e-22)
(1.99659 -0.000985735 -4.66123e-24)
(1.99628 -0.000190972 -4.0552e-22)
(1.99602 0.00067658 8.13629e-22)
(1.99582 0.0016039 -4.08083e-22)
(1.9957 0.00257461 2.03842e-22)
(1.99565 0.00356996 0)
(1.99569 0.00456903 2.06882e-22)
(1.99582 0.00554981 2.09999e-22)
(1.99603 0.00649088 -2.02581e-22)
(1.99631 0.00737012 1.97083e-22)
(1.99667 0.00816747 1.97142e-22)
(1.99708 0.00886735 1.91218e-22)
(1.99754 0.00945723 -3.87888e-22)
(1.99803 0.00992876 0)
(1.99854 0.0102777 -3.66932e-22)
(1.99904 0.0105039 7.49107e-24)
(1.99954 0.0106108 3.59182e-22)
(2.00001 0.010605 -3.44003e-22)
(2.00045 0.0104953 7.53075e-24)
(2.00085 0.0102921 3.72025e-24)
(2.00122 0.0100068 -4.84919e-22)
(2.00154 0.00965091 3.22433e-22)
(2.00181 0.00923594 -1.55766e-22)
(2.00205 0.00877273 -1.52724e-22)
(2.00224 0.00827117 -5.97459e-22)
(2.0024 0.00774019 1.77311e-21)
(2.00252 0.00718747 2.82959e-25)
(2.00262 0.00661973 2.31573e-21)
(2.00269 0.00604294 8.45903e-22)
(2.00274 0.0054598 -1.42647e-22)
(2.00277 0.00487472 -2.78922e-22)
(2.00279 0.00429043 -1.36833e-22)
(2.0028 0.00370822 1.36873e-22)
(2.00281 0.00312921 -1.36146e-22)
(2.00281 0.00255382 -1.34301e-22)
(2.00281 0.001982 1.3434e-22)
(2.0028 0.00141329 9.29413e-25)
(2.0028 0.00084718 1.33478e-22)
(2.0028 0.000282417 0)
(2.00267 -0.000263276 0)
(2.00264 -0.000787343 0)
(2.00258 -0.00130321 0)
(2.00249 -0.00180597 -1.56575e-22)
(2.00236 -0.00228989 1.56548e-22)
(2.0022 -0.00274928 -1.59136e-22)
(2.00201 -0.00317813 1.59119e-22)
(2.00178 -0.00357022 0)
(2.00152 -0.00391889 0)
(2.00123 -0.00421723 1.67219e-22)
(2.0009 -0.0044581 -3.37027e-22)
(2.00053 -0.0046339 -1.78499e-24)
(2.00013 -0.00473718 7.03557e-22)
(1.9997 -0.00475967 2.13375e-21)
(1.99924 -0.00469327 1.45355e-21)
(1.99876 -0.00453316 -1.45641e-21)
(1.99825 -0.00427241 -1.50245e-21)
(1.99774 -0.00390436 9.44745e-22)
(1.99723 -0.00342473 -7.7647e-22)
(1.99672 -0.00283317 2.77111e-23)
(1.99624 -0.00212781 -1.60646e-21)
(1.99579 -0.00131594 3.23244e-21)
(1.99539 -0.000403413 -4.07174e-22)
(1.99506 0.000598268 0)
(1.9948 0.00167423 0)
(1.99464 0.00280519 0)
(1.99458 0.00396842 0)
(1.99462 0.00513857 -2.06939e-22)
(1.99478 0.00628837 2.14617e-22)
(1.99504 0.00739151 1.25905e-24)
(1.99541 0.00842034 0)
(1.99586 0.00935012 1.96542e-22)
(1.99639 0.0101618 -2.02451e-22)
(1.99697 0.0108402 1.95798e-22)
(1.9976 0.0113757 3.77349e-22)
(1.99823 0.011764 -5.64493e-22)
(1.99887 0.0120059 -3.60593e-22)
(1.99949 0.0121065 1.8205e-22)
(2.00008 0.0120752 0)
(2.00063 0.0119235 1.69882e-22)
(2.00113 0.011665 5.63304e-25)
(2.00157 0.0113139 8.50566e-25)
(2.00196 0.0108847 -1.5782e-22)
(2.00229 0.0103912 -3.0569e-22)
(2.00257 0.00984643 4.5962e-22)
(2.0028 0.00926204 -1.18187e-21)
(2.00298 0.00864822 1.1819e-21)
(2.00312 0.00801421 -2.31801e-21)
(2.00323 0.00736691 2.53737e-21)
(2.00331 0.00671295 -8.45618e-22)
(2.00336 0.00605509 0)
(2.00339 0.00539841 1.36211e-22)
(2.00341 0.00474514 -1.36255e-22)
(2.00342 0.00409652 0)
(2.00342 0.00345352 0)
(2.00341 0.00281621 0)
(2.00341 0.00218426 0)
(2.0034 0.00155675 0)
(2.00339 0.000932877 0)
(2.00339 0.000310933 0)
(2.00323 -0.000297793 0)
(2.00319 -0.000890792 0)
(2.00312 -0.00147509 0)
(2.00301 -0.00204558 0)
(2.00286 -0.00259604 0)
(2.00268 -0.0031205 1.57042e-22)
(2.00245 -0.00361236 -3.15829e-22)
(2.00218 -0.00406486 1.58809e-22)
(2.00187 -0.00447069 -1.63174e-22)
(2.00152 -0.00482207 -2.56078e-24)
(2.00113 -0.00511091 1.65756e-22)
(2.00069 -0.00532857 0)
(2.00021 -0.00546619 -3.52071e-22)
(1.99969 -0.00551455 -1.07859e-21)
(1.99913 -0.00546351 7.21125e-21)
(1.99854 -0.0053058 -2.91149e-21)
(1.99793 -0.0050332 1.49895e-21)
(1.9973 -0.00463757 9.75397e-25)
(1.99666 -0.00411265 9.72009e-22)
(1.99604 -0.00345649 -1.56465e-21)
(1.99543 -0.00266518 -3.24607e-21)
(1.99487 -0.00174513 1.1453e-23)
(1.99437 -0.00070384 0)
(1.99394 0.000447103 -4.22235e-22)
(1.99362 0.00169077 -2.95006e-24)
(1.9934 0.00300435 4.24751e-22)
(1.99332 0.00436056 0)
(1.99337 0.00572847 0)
(1.99356 0.00707439 -2.08519e-22)
(1.99389 0.00836556 -4.18448e-22)
(1.99435 0.00956755 4.12356e-22)
(1.99493 0.0106496 -2.09246e-22)
(1.99559 0.0115882 0)
(1.99633 0.0123653 -5.85413e-22)
(1.99711 0.0129696 1.9571e-22)
(1.99791 0.0133969 3.69783e-22)
(1.9987 0.0136496 -3.71155e-22)
(1.99947 0.0137358 1.78275e-22)
(2.00019 0.0136679 1.69401e-22)
(2.00086 0.0134614 -5.12302e-22)
(2.00146 0.0131337 7.53457e-25)
(2.002 0.012703 1.0717e-24)
(2.00246 0.0121868 1.57674e-22)
(2.00285 0.0116022 1.54955e-24)
(2.00318 0.0109644 0)
(2.00344 0.0102871 3.05741e-24)
(2.00365 0.0095816 1.16639e-21)
(2.0038 0.00885896 -2.25621e-21)
(2.00392 0.00812567 1.06398e-22)
(2.004 0.00738961 -1.39001e-22)
(2.00405 0.00665346 0)
(2.00408 0.00592242 1.34195e-22)
(2.0041 0.00519827 -1.34243e-22)
(2.0041 0.00448212 0)
(2.00409 0.0037746 0)
(2.00408 0.0030753 0)
(2.00407 0.00238354 1.30114e-22)
(2.00405 0.00169788 -1.30154e-22)
(2.00404 0.00101712 0)
(2.00404 0.000338946 0)
(2.00386 -0.000335071 0)
(2.00382 -0.00100252 0)
(2.00373 -0.00166095 0)
(2.00361 -0.00230502 0)
(2.00344 -0.00292818 0)
(2.00322 -0.00352419 -1.54664e-22)
(2.00296 -0.00408592 3.11196e-22)
(2.00264 -0.00460611 2.21313e-24)
(2.00228 -0.00507685 2.49426e-24)
(2.00187 -0.00548942 1.66792e-22)
(2.0014 -0.0058348 -4.95139e-22)
(2.00089 -0.00610322 -3.27617e-24)
(2.00032 -0.00628429 1.70392e-22)
(1.9997 -0.00636737 -3.58457e-22)
(1.99903 -0.00634081 -2.14782e-21)
(1.99833 -0.00619361 -2.19581e-21)
(1.99759 -0.00591611 -1.43566e-23)
(1.99682 -0.00549859 1.77089e-22)
(1.99605 -0.00493173 5.81366e-22)
(1.99528 -0.00421109 -2.40454e-21)
(1.99453 -0.00333089 -2.52133e-21)
(1.99383 -0.00229523 -8.26304e-22)
(1.9932 -0.00111315 0)
(1.99266 0.000204351 -4.30903e-22)
(1.99224 0.00163801 -3.6271e-24)
(1.99197 0.00316109 4.34033e-22)
(1.99185 0.00474075 2.21112e-22)
(1.99191 0.00633932 0)
(1.99214 0.00791474 4.39141e-22)
(1.99255 0.00942633 -6.47494e-22)
(1.99312 0.0108306 2.13261e-22)
(1.99384 0.0120892 -4.13093e-22)
(1.99467 0.0131731 6.10673e-22)
(1.99559 0.0140602 -9.30434e-24)
(1.99656 0.014738 -2.00692e-22)
(1.99756 0.0152027 1.88685e-22)
(1.99853 0.0154592 0)
(1.99948 0.0155192 0)
(2.00036 0.0154 -1.68769e-22)
(2.00116 0.0151222 3.4298e-22)
(2.00189 0.0147081 1.64424e-22)
(2.00252 0.0141805 1.34644e-24)
(2.00306 0.0135611 -3.09118e-22)
(2.00351 0.0128702 -4.47286e-22)
(2.00388 0.0121259 1.77702e-21)
(2.00418 0.0113437 -1.16905e-21)
(2.00441 0.010537 5.64231e-22)
(2.00458 0.00971768 1.69034e-21)
(2.0047 0.00889186 -1.94649e-21)
(2.00478 0.00806895 -2.73497e-22)
(2.00483 0.00725086 0)
(2.00485 0.00644291 -1.31974e-22)
(2.00485 0.00564626 1.32034e-22)
(2.00484 0.00486183 0)
(2.00482 0.00408969 1.29104e-22)
(2.0048 0.00332885 -1.29149e-22)
(2.00478 0.00257812 0)
(2.00477 0.00183546 0)
(2.00475 0.00109911 0)
(2.00475 0.000366206 0)
(2.00457 -0.000375219 0)
(2.00452 -0.0011229 0)
(2.00442 -0.0018614 0)
(2.00428 -0.00258521 0)
(2.00408 -0.00328757 0)
(2.00383 -0.00396204 0)
(2.00353 -0.00460104 -1.54013e-22)
(2.00317 -0.0051969 -2.37028e-24)
(2.00276 -0.00574104 -1.61727e-22)
(2.00228 -0.00622405 1.56063e-22)
(2.00174 -0.00663577 -1.68609e-22)
(2.00114 -0.00696525 3.30704e-22)
(2.00047 -0.00720055 -3.45583e-22)
(1.99975 -0.00732924 -8.15929e-24)
(1.99896 -0.00733772 3.21844e-21)
(1.99812 -0.00721179 -7.43175e-22)
(1.99724 -0.00693917 -1.52392e-21)
(1.99632 -0.00650792 -2.10168e-22)
(1.99538 -0.00590481 -1.86026e-23)
(1.99444 -0.00512193 2.43094e-21)
(1.99352 -0.00415116 -9.31993e-23)
(1.99266 -0.00299286 -4.26904e-22)
(1.99187 -0.00165716 6.4559e-22)
(1.99119 -0.000153623 2.21703e-22)
(1.99066 0.00149601 0)
(1.9903 0.00326075 2.26453e-22)
(1.99014 0.00510117 -2.21269e-22)
(1.99019 0.00697094 4.46671e-22)
(1.99047 0.00881767 -6.6381e-22)
(1.99098 0.01059 6.54946e-22)
(1.99169 0.0122329 -2.18495e-22)
(1.99258 0.013698 4.21479e-22)
(1.99362 0.014949 -2.14748e-22)
(1.99476 0.0159594 6.04821e-22)
(1.99597 0.0167149 -1.13696e-23)
(1.99719 0.0172131 -5.80089e-22)
(1.99839 0.0174625 -3.64321e-22)
(1.99953 0.0174804 3.64111e-22)
(2.00059 0.0172905 0)
(2.00156 0.0169201 1.68202e-22)
(2.00241 0.0163978 -1.61939e-22)
(2.00315 0.0157521 -1.55278e-22)
(2.00377 0.0150098 3.96351e-24)
(2.00429 0.0141949 0)
(2.0047 0.0133283 1.13779e-21)
(2.00503 0.0124287 -2.2622e-21)
(2.00527 0.0115102 -8.30903e-22)
(2.00545 0.0105851 -2.77261e-22)
(2.00557 0.00966019 1.34151e-22)
(2.00564 0.00874558 -9.26601e-22)
(2.00568 0.007842 3.95758e-22)
(2.00569 0.00695498 -1.30909e-22)
(2.00568 0.00608476 0)
(2.00565 0.00523184 0)
(2.00562 0.00439554 0)
(2.00559 0.00357411 -1.26223e-22)
(2.00556 0.00276584 4.81502e-25)
(2.00553 0.00196794 1.25848e-22)
(2.00551 0.00117798 0)
(2.00551 0.000392415 0)
(2.00536 -0.000418265 -1.42864e-22)
(2.00531 -0.00125209 1.43286e-22)
(2.0052 -0.00207677 0)
(2.00503 -0.00288667 -1.45702e-22)
(2.00481 -0.00367501 1.45662e-22)
(2.00453 -0.00443521 0)
(2.00419 -0.00515943 1.5115e-22)
(2.00378 -0.00583958 2.53073e-24)
(2.00331 -0.00646653 -3.10176e-22)
(2.00276 -0.00703019 -1.62946e-22)
(2.00215 -0.00751937 1.56202e-22)
(2.00145 -0.00792181 1.63312e-22)
(2.00068 -0.00822403 0)
(1.99984 -0.00841146 0)
(1.99892 -0.00846837 -3.56213e-22)
(1.99793 -0.0083771 -1.10494e-21)
(1.99689 -0.00812213 1.49718e-21)
(1.99579 -0.00768842 -1.17422e-21)
(1.99467 -0.00705801 -2.12848e-23)
(1.99353 -0.00621812 1.65801e-21)
(1.99241 -0.00515748 5.842e-21)
(1.99134 -0.00387081 -8.70638e-22)
(1.99036 -0.00236817 6.55283e-22)
(1.98951 -0.0006571 2.23117e-22)
(1.98883 0.00123863 0)
(1.98836 0.00328365 -2.26677e-22)
(1.98814 0.00543048 0)
(1.98818 0.00762206 2.3017e-22)
(1.98852 0.00979244 -1.68698e-24)
(1.98913 0.0118764 -9.10539e-22)
(1.99001 0.0138036 1.34669e-21)
(1.99112 0.0155125 -9.79707e-24)
(1.99241 0.0169572 -4.30578e-22)
(1.99383 0.0181056 3.85102e-24)
(1.99531 0.0189419 -1.91517e-22)
(1.99681 0.0194662 5.84188e-22)
(1.99827 0.0196926 0)
(1.99965 0.0196464 0)
(2.00092 0.0193599 -3.39419e-22)
(2.00206 0.0188694 1.16407e-23)
(2.00306 0.0182115 6.494e-22)
(2.00391 0.017422 4.21098e-24)
(2.00462 0.0165333 4.81384e-24)
(2.0052 0.015574 1.16373e-21)
(2.00565 0.0145677 -6.84007e-21)
(2.006 0.0135365 2.81328e-21)
(2.00625 0.0124937 5.53037e-22)
(2.00643 0.0114537 0)
(2.00654 0.0104235 0)
(2.0066 0.0094124 5.2719e-22)
(2.00662 0.00842037 1.28155e-22)
(2.00661 0.00745269 -1.28212e-22)
(2.00657 0.00650848 0)
(2.00653 0.00558754 -1.25016e-22)
(2.00648 0.00468824 1.2507e-22)
(2.00643 0.00380801 0)
(2.00639 0.00294433 0)
(2.00635 0.0020936 1.23154e-22)
(2.00633 0.00125266 -1.23208e-22)
(2.00632 0.000417226 0)
(2.00624 -0.000464257 0)
(2.00618 -0.00139014 0)
(2.00606 -0.00230711 1.40985e-22)
(2.00588 -0.0032096 -1.40935e-22)
(2.00563 -0.0040909 0)
(2.00532 -0.00494436 0)
(2.00494 -0.00576216 -1.47929e-22)
(2.00448 -0.00653581 -2.69126e-24)
(2.00395 -0.00725578 3.04238e-22)
(2.00333 -0.00791136 -1.5365e-22)
(2.00263 -0.00849042 -3.21842e-22)
(2.00184 -0.00897944 1.53324e-22)
(2.00096 -0.00936329 3.30383e-22)
(1.99999 -0.0096252 -3.49439e-22)
(1.99893 -0.00974691 -2.13551e-21)
(1.99778 -0.00970717 3.60183e-22)
(1.99655 -0.00948643 -7.66433e-22)
(1.99526 -0.00906564 1.7527e-21)