/*--------------------------------*- C++ -*----------------------------------*\
  =========                 |
  \\      /  F ield         | OpenFOAM: The Open Source CFD Toolbox
   \\    /   O peration     | Website:  https://openfoam.org
    \\  /    A nd           | Version:  12
     \\/     M anipulation  |
\*---------------------------------------------------------------------------*/
FoamFile
{
    format      ascii;
    class       volScalarField;
    location    "500";
    object      yPlus;
}
// * * * * * * * * * * * * * * * * * * * * * * * * * * * * * * * * * * * * * //

dimensions      [];

internalField   uniform 0;

boundaryField
{
    topAndBottom
    {
        type            calculated;
        value           uniform 0;
    }
    inlet
    {
        type            calculated;
        value           uniform 0;
    }
    outlet
    {
        type            calculated;
        value           uniform 0;
    }
    front
    {
        type            empty;
    }
    back
    {
        type            empty;
    }
    airfoil
    {
        type            calculated;
        value           nonuniform List<scalar> 
379
(
4.02164
25.0078
9.69021
15.5702
15.8614
34.857
15.0317
14.041
21.9073
20.1801
17.9766
17.2875
14.2514
5.20267
12.1125
13.4478
7.18624
10.6785
11.8995
6.94764
13.0369
3.84963
5.64913
9.16417
7.93484
10.4473
5.31541
8.53815
4.56445
3.07914
4.06054
4.68688
4.10555
15.4011
3.8039
3.61444
31.7243
30.8362
58.2943
26.9442
56.3687
25.5955
3.2868
4.85417
5.68992
7.33928
4.28033
17.3699
14.291
6.0545
18.7269
6.64332
7.37469
5.43272
16.2411
13.3293
10.0774
20.0604
14.8845
17.097
20.512
8.335
26.3446
14.3875
15.7006
23.1895
45.1965
23.1943
11.4163
10.4805
4.12933
16.5203
5.10659
14.743
17.8675
17.5559
19.8088
20.4617
20.6237
12.9307
11.1111
55.608
47.6011
55.1356
48.586
25.8464
19.9511
19.1245
15.3841
13.6577
63.2533
63.285
19.0438
40.1399
2.44862
21.9423
3.3825
12.0994
18.664
18.9698
2.93644
9.77023
27.6494
8.03828
4.69194
31.2836
59.604
27.0091
54.1093
24.7993
33.7326
21.5522
18.4526
23.2435
39.4027
41.6815
16.398
17.7589
62.5542
9.13994
25.3894
13.3297
14.4795
12.2896
28.3495
17.0732
22.8856
26.3445
38.9233
26.7415
5.83159
2.94441
33.1621
33.82
57.6475
25.3357
23.3325
62.002
25.7981
50.0498
24.0339
8.66247
35.9549
17.5723
19.7063
26.0211
36.5347
52.2284
40.026
7.04655
23.7512
54.5441
38.4422
39.1486
41.9735
18.1894
18.4864
63.4562
62.623
62.9057
13.6563
33.5077
19.4197
5.38377
10.785
14.7924
32.5791
29.6355
46.588
25.2706
41.3362
40.6046
47.4527
12.726
34.8268
33.7051
28.5265
7.13001
6.01922
28.7542
32.0027
32.4693
22.6499
52.8199
51.8941
4.39523
2.43166
28.2982
27.7679
60.9833
60.355
58.1129
54.4689
49.6903
42.1339
54.0482
8.13163
9.06635
17.7677
24.4994
53.8361
50.9529
39.9112
30.9921
32.4124
13.5451
19.059
28.8611
27.654
14.4277
12.9748
23.9488
43.1088
17.7619
35.2286
20.8371
6.27195
15.2939
14.6631
25.0295
12.1465
4.60848
10.4084
5.94393
5.02253
7.36701
12.8312
9.34217
8.43658
6.39943
7.87437
7.46294
7.13587
14.6664
8.41354
13.831
4.70366
1.82017
4.82808
3.64596
14.7391
6.29612
5.97061
2.70025
19.983
3.41222
4.91683
10.731
5.7341
12.8572
16.4618
21.8434
21.0506
20.5094
3.2709
13.9817
61.8787
62.3723
4.79393
4.39552
9.36554
17.9623
9.73672
27.5721
23.5062
61.2304
28.8168
32.8779
38.8521
19.6248
20.105
3.67949
6.75168
7.42547
22.5472
48.462
36.352
40.2517
15.0288
13.5107
63.3229
6.21661
10.6653
11.2837
7.44846
9.12698
20.2727
14.4419
15.6154
12.39
30.6189
60.7863
12.8983
7.37711
18.6226
45.0056
44.3309
5.42012
12.3375
12.0221
26.0598
14.8951
35.922
58.8527
35.2112
37.2554
14.4434
44.377
41.1091
52.4715
53.3972
51.7238
42.0766
62.9584
62.9813
63.1878
63.03
11.7801
2.69843
2.39418
10.7252
10.587
9.17315
10.2839
15.4488
16.4647
14.4336
13.4023
19.8885
24.4139
25.5342
14.8724
14.1062
27.0386
35.6412
35.1548
55.8632
54.5859
49.8029
21.6001
15.6214
16.3369
49.2977
49.9832
37.0407
37.7416
46.8183
56.013
56.9259
11.799
11.0546
30.1668
29.4362
18.4418
17.4659
11.3885
12.3861
19.2557
15.7715
6.63006
37.7972
37.0242
12.5631
13.3365
34.4586
59.5539
55.7087
45.2522
44.2577
43.208
50.9406
20.4287
19.3292
10.1662
16.95
55.1026
46.0286
42.8482
43.5476
)
;
    }
}


// ************************************************************************* //
