/*--------------------------------*- C++ -*----------------------------------*\
  =========                 |
  \\      /  F ield         | OpenFOAM: The Open Source CFD Toolbox
   \\    /   O peration     | Website:  https://openfoam.org
    \\  /    A nd           | Version:  12
     \\/     M anipulation  |
\*---------------------------------------------------------------------------*/
FoamFile
{
    format      ascii;
    class       volScalarField;
    location    "460";
    object      k;
}
// * * * * * * * * * * * * * * * * * * * * * * * * * * * * * * * * * * * * * //

dimensions      [0 2 -2 0 0 0 0];

internalField   nonuniform List<scalar> 
16227
(
0.00914646
0.00914648
0.00914647
0.00914651
0.0091465
0.00914654
0.00914653
0.00914651
0.00914651
0.00914653
0.00914657
0.00914659
0.00914665
0.00914665
0.00914665
0.00914665
0.00914665
0.00914665
0.00914665
0.00914665
0.00914665
0.00914665
0.00914665
0.00914665
0.00914665
0.00914665
0.00914665
0.00914666
0.00914667
0.00914664
0.00914665
0.00914665
0.00914665
0.00914665
0.00914665
0.00914665
0.00914665
0.00914665
0.00914665
0.00914665
0.00914665
0.00914665
0.00914665
0.00914665
0.00914665
0.00914665
0.00914665
0.00914663
0.00914662
0.00914662
0.00914662
0.00914661
0.00914654
0.00914654
0.00914649
0.00914649
0.00914651
0.00914649
0.00914647
0.00914646
0.00848122
0.00848124
0.00848123
0.00848126
0.00848127
0.0084813
0.00848129
0.00848126
0.00848128
0.00848129
0.00848134
0.00848136
0.00848151
0.00848156
0.00848158
0.00848158
0.00848158
0.00848158
0.00848157
0.00848157
0.00848159
0.0084816
0.0084816
0.0084816
0.0084816
0.0084816
0.0084816
0.0084816
0.00848158
0.00848153
0.00848158
0.00848161
0.00848161
0.00848161
0.00848161
0.0084816
0.00848158
0.00848158
0.00848159
0.00848159
0.00848159
0.00848159
0.00848159
0.00848158
0.00848158
0.00848156
0.00848156
0.00848156
0.00848157
0.00848155
0.00848152
0.00848147
0.00848135
0.00848134
0.0084813
0.00848128
0.00848132
0.00848124
0.00848125
0.00848122
0.00790073
0.00790075
0.00790076
0.00790077
0.00790076
0.00790085
0.00790081
0.00790079
0.0079008
0.00790081
0.00790085
0.00790087
0.00790112
0.00790118
0.00790119
0.0079012
0.0079012
0.0079012
0.00790122
0.00790116
0.0079012
0.00790121
0.00790121
0.00790121
0.00790121
0.00790121
0.00790121
0.00790122
0.00790121
0.00790114
0.0079012
0.00790122
0.00790122
0.00790123
0.00790124
0.00790124
0.00790124
0.00790124
0.00790123
0.00790123
0.00790124
0.00790124
0.00790123
0.00790123
0.00790123
0.00790123
0.00790122
0.00790122
0.00790121
0.00790119
0.00790115
0.00790095
0.00790088
0.00790086
0.00790085
0.00790084
0.00790087
0.00790078
0.00790079
0.00790077
0.0073902
0.00739022
0.00739022
0.00739023
0.00739024
0.0073903
0.0073903
0.00739027
0.00739027
0.00739026
0.00739031
0.00739037
0.00739063
0.0073907
0.00739071
0.00739073
0.00739073
0.00739075
0.00739068
0.00739055
0.00739067
0.0073907
0.0073907
0.00739071
0.00739071
0.00739071
0.00739071
0.00739071
0.0073907
0.00739062
0.0073907
0.00739073
0.00739073
0.00739074
0.00739075
0.00739077
0.00739078
0.00739078
0.00739079
0.0073908
0.00739081
0.00739081
0.00739081
0.00739081
0.00739081
0.00739081
0.00739081
0.00739081
0.00739082
0.00739079
0.00739067
0.00739047
0.00739037
0.00739039
0.00739039
0.00739041
0.00739038
0.00739031
0.00739031
0.00739029
0.00693802
0.00693804
0.00693804
0.00693806
0.00693806
0.00693812
0.00693814
0.00693808
0.00693809
0.00693809
0.00693812
0.00693817
0.00693842
0.00693854
0.00693856
0.00693855
0.00693856
0.00693853
0.00693831
0.00693824
0.00693843
0.0069385
0.0069385
0.00693849
0.00693848
0.00693848
0.00693848
0.00693849
0.00693847
0.00693838
0.00693848
0.00693852
0.00693855
0.00693856
0.00693857
0.0069386
0.00693862
0.00693865
0.00693866
0.00693868
0.0069387
0.00693872
0.00693872
0.00693873
0.00693873
0.00693875
0.00693875
0.00693875
0.00693875
0.00693867
0.00693843
0.00693832
0.00693824
0.00693828
0.0069383
0.00693834
0.00693828
0.00693821
0.00693821
0.00693819
0.00653499
0.00653502
0.00653501
0.00653502
0.00653502
0.00653507
0.0065351
0.00653505
0.00653502
0.00653501
0.00653501
0.00653504
0.00653515
0.00653543
0.00653549
0.0065355
0.00653549
0.00653538
0.00653514
0.00653509
0.00653531
0.00653537
0.00653535
0.00653534
0.00653533
0.00653534
0.00653534
0.00653533
0.00653532
0.00653524
0.00653535
0.00653539
0.00653543
0.00653546
0.0065355
0.00653553
0.00653557
0.00653561
0.00653564
0.00653567
0.0065357
0.00653573
0.00653575
0.00653578
0.00653579
0.00653581
0.00653582
0.00653583
0.00653583
0.00653569
0.00653546
0.00653534
0.00653531
0.00653536
0.0065354
0.00653539
0.00653534
0.00653528
0.00653528
0.00653526
0.00617372
0.00617373
0.00617372
0.00617373
0.00617373
0.00617376
0.0061738
0.00617377
0.00617372
0.0061737
0.00617368
0.00617367
0.00617376
0.00617401
0.00617414
0.00617415
0.0061741
0.0061738
0.00617367
0.00617366
0.00617388
0.00617392
0.0061739
0.00617388
0.00617387
0.00617386
0.00617385
0.00617386
0.00617385
0.00617377
0.00617389
0.00617395
0.006174
0.00617405
0.00617411
0.00617416
0.00617421
0.00617428
0.00617433
0.00617439
0.00617444
0.00617448
0.00617453
0.00617456
0.0061746
0.00617462
0.00617464
0.00617466
0.0061746
0.00617434
0.00617421
0.00617414
0.00617414
0.00617421
0.00617423
0.00617422
0.00617417
0.00617412
0.00617413
0.00617411
0.00584819
0.00584819
0.00584818
0.00584819
0.00584818
0.0058482
0.00584823
0.00584821
0.00584816
0.00584811
0.00584807
0.00584802
0.00584805
0.00584816
0.00584844
0.0058485
0.00584842
0.00584806
0.00584795
0.00584793
0.00584814
0.00584818
0.00584814
0.00584811
0.00584808
0.00584807
0.00584807
0.00584807
0.00584805
0.00584798
0.00584812
0.0058482
0.00584827
0.00584834
0.00584841
0.00584849
0.00584858
0.00584866
0.00584874
0.00584882
0.0058489
0.00584896
0.00584903
0.00584909
0.00584914
0.00584917
0.00584921
0.00584923
0.00584911
0.00584886
0.00584875
0.00584872
0.00584878
0.00584882
0.00584882
0.00584882
0.00584878
0.00584873
0.00584874
0.00584872
0.00555347
0.00555347
0.00555347
0.00555346
0.00555345
0.00555346
0.00555348
0.00555345
0.00555342
0.00555335
0.00555328
0.0055532
0.00555319
0.00555326
0.00555358
0.00555365
0.00555347
0.00555313
0.00555302
0.00555298
0.00555318
0.00555319
0.00555314
0.00555309
0.00555305
0.00555303
0.00555302
0.00555303
0.00555302
0.00555295
0.0055531
0.0055532
0.00555329
0.00555339
0.00555349
0.0055536
0.00555371
0.00555383
0.00555394
0.00555405
0.00555415
0.00555426
0.00555434
0.00555441
0.00555448
0.00555456
0.00555459
0.00555455
0.0055543
0.00555419
0.00555413
0.00555417
0.0055542
0.00555424
0.00555425
0.00555425
0.00555423
0.00555418
0.00555418
0.00555418
0.0052855
0.0052855
0.00528549
0.00528549
0.00528546
0.00528547
0.00528548
0.00528544
0.00528539
0.00528535
0.00528525
0.00528514
0.00528512
0.00528518
0.00528541
0.00528547
0.00528513
0.0052849
0.00528479
0.00528475
0.00528492
0.00528491
0.00528484
0.00528477
0.00528472
0.00528469
0.00528468
0.00528467
0.00528467
0.00528461
0.00528478
0.0052849
0.00528501
0.00528514
0.00528527
0.00528542
0.00528557
0.00528572
0.00528587
0.00528601
0.00528614
0.00528627
0.00528639
0.0052865
0.00528659
0.00528668
0.00528673
0.00528666
0.00528641
0.00528633
0.00528633
0.00528636
0.00528639
0.00528644
0.00528645
0.00528646
0.00528643
0.0052864
0.0052864
0.0052864
0.00504089
0.00504089
0.00504088
0.00504086
0.00504085
0.00504084
0.00504083
0.00504077
0.00504072
0.00504066
0.00504057
0.00504043
0.00504033
0.00504033
0.00504039
0.00504056
0.00504023
0.00504002
0.0050399
0.00503983
0.00503992
0.00503993
0.00503985
0.00503976
0.00503969
0.00503964
0.00503961
0.00503961
0.00503962
0.00503956
0.00503975
0.0050399
0.00504004
0.00504019
0.00504037
0.00504055
0.00504074
0.00504093
0.00504112
0.00504131
0.00504148
0.00504164
0.00504179
0.00504192
0.00504205
0.00504214
0.00504213
0.00504203
0.0050419
0.00504185
0.00504188
0.00504191
0.00504195
0.00504201
0.00504203
0.00504204
0.00504202
0.00504198
0.005042
0.00504199
0.00481678
0.00481678
0.00481676
0.00481675
0.00481672
0.00481671
0.00481668
0.00481663
0.00481655
0.00481647
0.00481637
0.00481623
0.00481609
0.00481602
0.00481602
0.00481613
0.00481586
0.00481564
0.00481547
0.00481535
0.00481528
0.00481537
0.0048153
0.00481519
0.0048151
0.00481503
0.004815
0.004815
0.004815
0.00481496
0.00481517
0.00481534
0.00481551
0.00481571
0.00481592
0.00481615
0.00481638
0.00481662
0.00481685
0.00481708
0.0048173
0.0048175
0.00481768
0.00481786
0.00481799
0.00481807
0.00481799
0.00481797
0.00481793
0.0048179
0.00481794
0.00481799
0.00481804
0.0048181
0.00481812
0.00481814
0.00481812
0.00481809
0.0048181
0.0048181
0.00461077
0.00461076
0.00461074
0.00461072
0.00461069
0.00461066
0.00461062
0.00461056
0.00461047
0.00461037
0.00461026
0.00461011
0.00460995
0.00460979
0.00460968
0.00460961
0.0046095
0.00460933
0.00460912
0.00460896
0.00460881
0.0046089
0.00460881
0.00460867
0.00460855
0.00460847
0.00460842
0.00460841
0.00460842
0.0046084
0.00460862
0.00460882
0.00460903
0.00460927
0.00460953
0.00460981
0.00461009
0.00461038
0.00461067
0.00461094
0.0046112
0.00461145
0.00461167
0.00461188
0.00461203
0.00461209
0.00461204
0.00461209
0.00461205
0.00461205
0.0046121
0.00461217
0.00461223
0.00461228
0.00461232
0.00461233
0.00461232
0.0046123
0.00461231
0.00461231
0.00442079
0.0044208
0.00442077
0.00442074
0.0044207
0.00442066
0.00442061
0.00442054
0.00442044
0.00442032
0.00442019
0.00442001
0.00441984
0.00441965
0.00441946
0.00441934
0.00441924
0.00441904
0.0044188
0.00441859
0.00441839
0.00441845
0.00441831
0.00441814
0.00441799
0.00441788
0.00441782
0.00441781
0.00441782
0.0044178
0.00441805
0.00441828
0.00441853
0.00441882
0.00441913
0.00441946
0.00441981
0.00442016
0.0044205
0.00442083
0.00442114
0.00442143
0.00442169
0.00442192
0.00442204
0.00442209
0.00442216
0.00442223
0.00442223
0.00442226
0.00442232
0.00442239
0.00442246
0.00442252
0.00442256
0.00442259
0.00442258
0.00442257
0.00442258
0.00442257
0.00424511
0.0042451
0.00424508
0.00424504
0.004245
0.00424495
0.00424489
0.0042448
0.00424469
0.00424455
0.0042444
0.00424421
0.00424401
0.00424379
0.00424358
0.00424341
0.00424327
0.00424303
0.00424274
0.00424248
0.00424224
0.00424223
0.00424206
0.00424184
0.00424166
0.00424153
0.00424144
0.00424142
0.00424143
0.00424143
0.0042417
0.00424197
0.00424227
0.00424261
0.00424298
0.00424337
0.00424378
0.0042442
0.0042446
0.00424499
0.00424535
0.0042457
0.004246
0.00424622
0.00424628
0.00424643
0.00424655
0.00424665
0.0042467
0.00424675
0.00424684
0.00424692
0.00424699
0.00424705
0.00424709
0.00424713
0.00424712
0.00424712
0.00424713
0.00424712
0.00408219
0.00408218
0.00408216
0.00408212
0.00408206
0.00408201
0.00408194
0.00408184
0.00408172
0.00408156
0.00408139
0.00408117
0.00408095
0.0040807
0.00408045
0.00408025
0.00408006
0.00407978
0.00407944
0.00407912
0.00407883
0.00407871
0.00407853
0.00407827
0.00407805
0.00407788
0.00407777
0.00407774
0.00407775
0.00407776
0.00407806
0.00407837
0.00407872
0.00407912
0.00407955
0.00408002
0.0040805
0.00408099
0.00408146
0.00408191
0.00408233
0.00408273
0.00408307
0.00408328
0.00408339
0.00408357
0.00408374
0.00408383
0.00408391
0.00408401
0.00408412
0.00408421
0.00408429
0.00408436
0.00408441
0.00408444
0.00408444
0.00408444
0.00408445
0.00408445
0.00393074
0.00393073
0.0039307
0.00393066
0.0039306
0.00393054
0.00393046
0.00393034
0.00393021
0.00393004
0.00392985
0.00392961
0.00392936
0.00392908
0.0039288
0.00392855
0.00392832
0.00392797
0.00392759
0.00392719
0.00392683
0.00392652
0.00392639
0.00392612
0.00392585
0.00392564
0.0039255
0.00392545
0.00392546
0.00392549
0.00392582
0.00392617
0.00392658
0.00392704
0.00392755
0.0039281
0.00392867
0.00392922
0.00392977
0.00393029
0.00393078
0.00393121
0.00393152
0.00393175
0.00393197
0.00393221
0.00393241
0.00393252
0.00393262
0.00393276
0.00393288
0.00393298
0.00393306
0.00393314
0.00393319
0.00393322
0.00393323
0.00393323
0.00393324
0.00393323
0.00378962
0.0037896
0.00378957
0.00378953
0.00378946
0.0037894
0.00378931
0.00378918
0.00378903
0.00378885
0.00378864
0.00378838
0.00378809
0.00378779
0.00378746
0.00378717
0.0037869
0.00378651
0.00378605
0.00378559
0.00378514
0.00378473
0.00378456
0.00378425
0.00378392
0.00378366
0.00378349
0.00378342
0.00378342
0.00378347
0.00378383
0.00378423
0.0037847
0.00378524
0.00378584
0.00378648
0.00378713
0.00378777
0.0037884
0.003789
0.00378954
0.00378999
0.00379026
0.00379059
0.0037909
0.00379119
0.00379141
0.00379155
0.00379168
0.00379183
0.00379196
0.00379207
0.00379216
0.00379224
0.0037923
0.00379233
0.00379234
0.00379234
0.00379235
0.00379235
0.00365782
0.00365781
0.00365777
0.00365773
0.00365766
0.00365758
0.00365749
0.00365735
0.00365719
0.003657
0.00365677
0.00365649
0.00365618
0.00365584
0.00365548
0.00365514
0.0036548
0.00365436
0.00365385
0.00365332
0.00365279
0.00365231
0.00365201
0.00365166
0.00365128
0.00365096
0.00365074
0.00365064
0.00365065
0.00365071
0.0036511
0.00365156
0.00365211
0.00365274
0.00365343
0.00365417
0.00365492
0.00365566
0.00365636
0.00365703
0.00365763
0.00365812
0.00365844
0.00365883
0.0036592
0.0036595
0.00365971
0.00365989
0.00366007
0.00366024
0.00366038
0.0036605
0.00366059
0.00366068
0.00366073
0.00366077
0.00366077
0.00366078
0.00366079
0.00366079
0.00353449
0.00353448
0.00353444
0.00353439
0.00353432
0.00353424
0.00353414
0.00353399
0.00353382
0.00353361
0.00353337
0.00353307
0.00353274
0.00353237
0.00353197
0.00353157
0.00353117
0.00353068
0.00353011
0.00352951
0.00352888
0.0035283
0.00352778
0.00352745
0.00352704
0.00352666
0.00352639
0.00352626
0.00352626
0.00352634
0.00352678
0.0035273
0.00352793
0.00352866
0.00352946
0.00353031
0.00353116
0.003532
0.00353277
0.00353347
0.00353411
0.00353463
0.0035351
0.00353556
0.00353597
0.00353629
0.00353652
0.00353673
0.00353694
0.00353712
0.00353727
0.00353739
0.00353749
0.00353757
0.00353763
0.00353766
0.00353767
0.00353767
0.00353769
0.00353769
0.00341885
0.00341883
0.0034188
0.00341875
0.00341867
0.00341859
0.00341849
0.00341834
0.00341816
0.00341793
0.00341768
0.00341736
0.00341701
0.00341661
0.00341616
0.00341568
0.00341521
0.0034147
0.00341408
0.0034134
0.00341269
0.00341199
0.00341135
0.00341096
0.00341046
0.00341
0.00340968
0.00340951
0.0034095
0.0034096
0.00341008
0.00341068
0.00341141
0.00341225
0.00341318
0.00341415
0.00341511
0.00341603
0.00341688
0.00341767
0.0034183
0.00341891
0.00341949
0.00342001
0.00342044
0.00342075
0.00342102
0.00342128
0.00342151
0.0034217
0.00342185
0.00342197
0.00342207
0.00342215
0.00342221
0.00342224
0.00342225
0.00342226
0.00342227
0.00342227
0.00331023
0.00331021
0.00331017
0.00331012
0.00331005
0.00330996
0.00330985
0.0033097
0.00330951
0.00330929
0.00330901
0.00330869
0.00330832
0.00330789
0.0033074
0.00330687
0.00330634
0.00330578
0.00330509
0.00330433
0.00330353
0.00330274
0.00330198
0.00330144
0.00330086
0.00330033
0.00329994
0.00329973
0.0032997
0.00329983
0.00330035
0.00330104
0.00330189
0.00330286
0.00330392
0.00330504
0.0033061
0.0033071
0.00330805
0.00330892
0.00330963
0.00331032
0.00331095
0.00331151
0.00331195
0.00331228
0.00331258
0.00331286
0.00331309
0.00331329
0.00331344
0.00331356
0.00331366
0.00331374
0.00331379
0.00331383
0.00331384
0.00331385
0.00331386
0.00331385
0.00320801
0.003208
0.00320796
0.00320791
0.00320783
0.00320775
0.00320764
0.00320748
0.0032073
0.00320706
0.00320679
0.00320645
0.00320606
0.00320561
0.0032051
0.00320453
0.00320394
0.0032033
0.00320256
0.00320172
0.00320083
0.00319992
0.00319905
0.0031983
0.00319777
0.00319714
0.00319667
0.00319641
0.00319638
0.00319651
0.00319709
0.00319788
0.00319884
0.00319996
0.00320118
0.00320245
0.00320354
0.00320463
0.00320561
0.00320656
0.00320741
0.00320818
0.00320886
0.00320942
0.00320986
0.00321023
0.00321057
0.00321086
0.00321111
0.0032113
0.00321145
0.00321157
0.00321167
0.00321174
0.00321179
0.00321182
0.00321183
0.00321184
0.00321184
0.00321184
0.00311167
0.00311166
0.00311162
0.00311157
0.0031115
0.00311142
0.00311131
0.00311115
0.00311097
0.00311074
0.00311045
0.00311011
0.00310971
0.00310925
0.00310872
0.0031081
0.00310743
0.00310672
0.00310594
0.00310505
0.00310407
0.00310306
0.00310208
0.0031015
0.00314756
0.00314695
0.00314643
0.00314614
0.00314609
0.00314622
0.00314683
0.00314766
0.00314869
0.00314989
0.0031512
0.00315254
0.00310764
0.00310813
0.00310921
0.00311023
0.00311117
0.00311199
0.00311268
0.00311323
0.00311368
0.0031141
0.00311446
0.00311476
0.003115
0.00311519
0.00311534
0.00311545
0.00311554
0.00311561
0.00311565
0.00311568
0.00311569
0.00311569
0.0031157
0.00311569
0.00302073
0.00302071
0.00302068
0.00302064
0.00302057
0.00302049
0.00302038
0.00302023
0.00302005
0.00301982
0.00301954
0.0030192
0.0030188
0.00301833
0.00301778
0.00301714
0.00301642
0.00301563
0.00301479
0.00301387
0.00301283
0.00301176
0.00301101
0.00305425
0.0030517
0.00305113
0.00305054
0.00305019
0.00305011
0.00305025
0.00305089
0.00305181
0.00305295
0.0030543
0.0030558
0.00305722
0.00306066
0.00301785
0.00301839
0.00301945
0.00302042
0.00302126
0.00302196
0.00302251
0.00302298
0.00302341
0.00302377
0.00302406
0.0030243
0.00302448
0.00302462
0.00302473
0.0030248
0.00302487
0.0030249
0.00302493
0.00302493
0.00302493
0.00302493
0.00302492
0.00293476
0.00293474
0.00293471
0.00293467
0.00293461
0.00293453
0.00293443
0.00293429
0.00293412
0.0029339
0.00293363
0.00293329
0.0029329
0.00293243
0.00293187
0.00293123
0.00293048
0.00292965
0.00292876
0.00292781
0.00292674
0.00292564
0.00292504
0.00296401
0.00296178
0.00298276
0.00298228
0.00298196
0.00298187
0.00298197
0.00298257
0.00298345
0.00298461
0.00298604
0.00298768
0.00296796
0.00297084
0.00293266
0.00293271
0.00293376
0.00293473
0.00293555
0.00293622
0.00293679
0.00293729
0.00293772
0.00293807
0.00293835
0.00293857
0.00293874
0.00293887
0.00293896
0.00293903
0.00293908
0.00293912
0.00293913
0.00293913
0.00293912
0.00293912
0.00293911
0.00285336
0.00285334
0.00285332
0.00285328
0.00285323
0.00285316
0.00285307
0.00285294
0.00285278
0.00285258
0.00285232
0.002852
0.00285162
0.00285116
0.00285062
0.00284998
0.00284923
0.00284839
0.00284746
0.00284647
0.00284544
0.00284441
0.00284401
0.00287908
0.00287756
0.00289581
0.00289613
0.002896
0.00289594
0.00289596
0.00289625
0.00289683
0.00289777
0.00289912
0.00290077
0.0028845
0.00288606
0.0028523
0.00285183
0.00285278
0.0028537
0.00285448
0.00285514
0.00285572
0.00285622
0.00285664
0.00285697
0.00285723
0.00285744
0.00285759
0.0028577
0.00285778
0.00285784
0.00285787
0.00285789
0.0028579
0.00285789
0.00285788
0.00285788
0.00285786
0.0027762
0.00277618
0.00277616
0.00277613
0.00277609
0.00277603
0.00277595
0.00277584
0.0027757
0.00277551
0.00277528
0.00277498
0.00277462
0.0027742
0.00277368
0.00277306
0.00277235
0.00277153
0.00277061
0.00276964
0.00276868
0.00276781
0.00276773
0.00279951
0.00279875
0.00281426
0.00281633
0.00281675
0.00281714
0.0028173
0.00281726
0.00281713
0.00281725
0.00281794
0.00281927
0.00280644
0.00280616
0.00277644
0.0027754
0.00277617
0.002777
0.00277774
0.00277839
0.00277896
0.00277944
0.00277982
0.00278013
0.00278036
0.00278054
0.00278068
0.00278077
0.00278083
0.00278087
0.00278089
0.0027809
0.00278089
0.00278088
0.00278086
0.00278085
0.00278083
0.00270296
0.00270294
0.00270293
0.0027029
0.00270287
0.00270282
0.00270276
0.00270267
0.00270255
0.00270239
0.00270218
0.00270192
0.0027016
0.00270121
0.00270074
0.00270017
0.00269952
0.00269877
0.00269794
0.00269707
0.00269629
0.00269565
0.00269617
0.00272538
0.00272552
0.00273931
0.00274433
0.00274669
0.00274916
0.00275072
0.00275022
0.00274781
0.00274503
0.00274329
0.0027431
0.00273405
0.00273097
0.00270472
0.0027031
0.00270359
0.00270434
0.00270504
0.00270566
0.00270618
0.00270661
0.00270695
0.00270722
0.00270743
0.00270758
0.00270768
0.00270775
0.00270779
0.00270781
0.00270782
0.00270781
0.00270779
0.00270777
0.00270774
0.00270773
0.00270771
0.00263335
0.00263333
0.00263332
0.00263331
0.00263329
0.00263326
0.00263321
0.00263314
0.00263305
0.00263292
0.00263275
0.00263253
0.00263225
0.00263192
0.00263151
0.00263103
0.00263047
0.00262984
0.00262917
0.00262852
0.00262809
0.00262788
0.00262951
0.00265702
0.00265842
0.00267254
0.00268415
0.00269288
0.00270439
0.00271352
0.00271241
0.00270083
0.00268715
0.0026777
0.00267295
0.00266697
0.00266035
0.0026368
0.0026347
0.00263489
0.00263549
0.0026361
0.00263663
0.00263708
0.00263745
0.00263774
0.00263797
0.00263814
0.00263825
0.00263833
0.00263837
0.00263838
0.00263838
0.00263837
0.00263834
0.00263832
0.00263828
0.00263825
0.00263823
0.00263821
0.00256711
0.0025671
0.00256709
0.00256709
0.00256708
0.00256707
0.00256705
0.002567
0.00256694
0.00256684
0.00256672
0.00256654
0.00256633
0.00256607
0.00256574
0.00256537
0.00256494
0.00256449
0.00256406
0.00256378
0.0025639
0.00256451
0.00256811
0.0025949
0.00259874
0.00261795
0.00264338
0.00267542
0.00273072
0.00278805
0.00278711
0.00272541
0.00266383
0.00262784
0.002611
0.00260455
0.00259425
0.00257231
0.00256991
0.00256976
0.00257014
0.00257061
0.00257103
0.0025714
0.0025717
0.00257194
0.00257211
0.00257223
0.00257231
0.00257234
0.00257236
0.00257234
0.00257232
0.00257229
0.00257224
0.0025722
0.00257216
0.00257212
0.00257209
0.00257207
0.00250402
0.002504
0.00250401
0.00250401
0.00250402
0.00250402
0.00250402
0.00250401
0.00250398
0.00250392
0.00250385
0.00250373
0.00250359
0.00250341
0.0025032
0.00250295
0.0025027
0.00250248
0.00250239
0.00250261
0.00250352
0.00250557
0.0025125
0.00253974
0.00254867
0.00258054
0.0026363
0.0027495
0.00290273
0.00304518
0.00305634
0.00292591
0.00274601
0.00261116
0.00256188
0.00254561
0.00253252
0.00251097
0.00250836
0.00250787
0.002508
0.00250831
0.00250862
0.00250889
0.00250912
0.00250929
0.0025094
0.00250947
0.0025095
0.0025095
0.00250948
0.00250944
0.00250938
0.00250933
0.00250927
0.00250922
0.00250916
0.00250911
0.00250908
0.00250905
0.00244384
0.00244383
0.00244384
0.00244386
0.00244388
0.00244391
0.00244393
0.00244394
0.00244395
0.00244394
0.00244392
0.00244387
0.0024438
0.00244372
0.00244363
0.00244355
0.00244351
0.00244359
0.00244393
0.0024448
0.00244675
0.00245103
0.00246283
0.00249202
0.00251123
0.00256491
0.00268072
0.00289937
0.00325214
0.00411865
0.00409172
0.00342041
0.00296356
0.00266421
0.00253134
0.00248985
0.00247485
0.00245232
0.00244965
0.00244892
0.00244879
0.00244895
0.00244914
0.00244932
0.00244947
0.00244956
0.00244962
0.00244964
0.00244962
0.00244958
0.00244952
0.00244944
0.00244936
0.00244929
0.00244921
0.00244914
0.00244907
0.00244901
0.00244898
0.00244894
0.0023864
0.00238639
0.00238641
0.00238644
0.00238647
0.00238652
0.00238657
0.00238661
0.00238665
0.00238669
0.00238672
0.00238675
0.00238677
0.0023868
0.00238685
0.00238694
0.00238714
0.00238757
0.00238842
0.00239008
0.00239331
0.0024007
0.00241882
0.00245149
0.00248827
0.00257158
0.0027685
0.0030967
0.00485363
0.00501353
0.00332768
0.00280938
0.0025204
0.00243751
0.00241998
0.00239607
0.00239345
0.0023926
0.00239227
0.00239229
0.00239238
0.00239246
0.00239252
0.00239255
0.00239254
0.0023925
0.00239244
0.00239236
0.00239226
0.00239215
0.00239205
0.00239195
0.00239185
0.00239177
0.00239169
0.00239163
0.00239159
0.00239155
0.0023315
0.00233149
0.00233152
0.00233156
0.00233161
0.00233167
0.00233175
0.00233183
0.00233191
0.002332
0.00233209
0.00233218
0.0023323
0.00233244
0.00233263
0.00233292
0.00233339
0.00233419
0.00233561
0.00233816
0.00234287
0.00235411
0.0023795
0.00241743
0.00248002
0.00259791
0.00288733
0.00341872
0.0106203
0.0553931
0.026303
0.00375227
0.00299617
0.00251393
0.00238878
0.00236668
0.00234213
0.00233961
0.00233875
0.00233829
0.00233822
0.0023382
0.00233819
0.00233817
0.00233812
0.00233805
0.00233795
0.00233783
0.0023377
0.00233756
0.00233742
0.00233729
0.00233716
0.00233705
0.00233694
0.00233685
0.00233678
0.00233673
0.0023367
0.00227898
0.00227898
0.00227901
0.00227906
0.00227913
0.00227922
0.00227931
0.00227942
0.00227954
0.00227968
0.00227983
0.00228
0.0022802
0.00228046
0.00228081
0.00228129
0.00228204
0.00228323
0.00228523
0.00228871
0.00229496
0.00231038
0.00234319
0.00238856
0.00248272
0.00264342
0.00309876
0.00514473
0.0567366
0.0644472
0.0783503
0.011945
0.00430849
0.0031814
0.00249391
0.00234134
0.00231436
0.00229036
0.00228798
0.00228719
0.00228666
0.00228652
0.00228642
0.00228633
0.00228622
0.00228609
0.00228595
0.00228579
0.00228561
0.00228543
0.00228525
0.00228508
0.00228491
0.00228476
0.00228462
0.0022845
0.00228439
0.00228431
0.00228426
0.00228421
0.0022287
0.0022287
0.00222874
0.0022288
0.00222888
0.00222898
0.00222911
0.00222925
0.0022294
0.00222959
0.00222979
0.00223003
0.00223033
0.0022307
0.00223119
0.00223187
0.00223287
0.00223443
0.00223698
0.00224136
0.00224909
0.00226841
0.00230761
0.00236249
0.00248642
0.0026977
0.00338856
0.00825072
0.106325
0.112308
0.064614
0.0131169
0.00566168
0.00343918
0.00247943
0.00229155
0.00226428
0.00224083
0.00223851
0.00223782
0.00223726
0.00223706
0.00223688
0.0022367
0.00223651
0.0022363
0.00223608
0.00223585
0.00223562
0.00223539
0.00223517
0.00223495
0.00223475
0.00223457
0.00223441
0.00223427
0.00223415
0.00223406
0.002234
0.00223395
0.00218051
0.00218051
0.00218056
0.00218063
0.00218072
0.00218085
0.00218099
0.00218116
0.00218135
0.00218157
0.00218183
0.00218214
0.00218251
0.00218299
0.00218361
0.00218446
0.00218568
0.00218755
0.0021906
0.00219579
0.00220488
0.00222718
0.00227108
0.00233617
0.00248143
0.00273938
0.00371488
0.00785094
0.0950813
0.318667
0.607989
0.237939
0.0187503
0.00431942
0.00255359
0.00225049
0.00221924
0.00219393
0.00219125
0.00219063
0.00219
0.00218973
0.00218945
0.00218918
0.00218889
0.0021886
0.00218831
0.00218801
0.00218772
0.00218744
0.00218717
0.00218691
0.00218668
0.00218647
0.00218629
0.00218613
0.002186
0.00218589
0.00218583
0.00218577
0.00213429
0.00213429
0.00213434
0.00213442
0.00213453
0.00213467
0.00213483
0.00213502
0.00213525
0.00213551
0.00213582
0.00213618
0.00213663
0.00213718
0.0021379
0.00213886
0.00214028
0.00214247
0.00214595
0.0021518
0.00216201
0.00218622
0.00223333
0.00230732
0.00246591
0.00276111
0.00403402
0.00646426
0.0531753
0.147272
0.282073
0.425304
0.290001
0.0290799
0.00292799
0.00226566
0.00218172
0.00215064
0.00214635
0.0021456
0.0021448
0.00214439
0.00214401
0.00214363
0.00214325
0.00214287
0.00214249
0.00214213
0.00214177
0.00214144
0.00214112
0.00214083
0.00214056
0.00214033
0.00214012
0.00213994
0.00213979
0.00213968
0.00213961
0.00213955
0.00208991
0.00208991
0.00208997
0.00209006
0.00209018
0.00209033
0.00209051
0.00209073
0.00209098
0.00209128
0.00209163
0.00209204
0.00209253
0.00209312
0.00209391
0.00209503
0.00209665
0.00209909
0.00210291
0.00210922
0.00212033
0.00214535
0.00219454
0.00227509
0.00244548
0.00279757
0.00427364
0.00557992
0.0269025
0.075353
0.124825
0.18837
0.317078
0.124889
0.00591929
0.00237309
0.0021552
0.00211176
0.00210391
0.00210263
0.00210154
0.00210093
0.00210041
0.00209993
0.00209945
0.00209898
0.00209852
0.00209808
0.00209767
0.00209728
0.00209691
0.00209658
0.00209628
0.00209602
0.00209579
0.00209559
0.00209543
0.0020953
0.00209522
0.00209516
0.00204727
0.00204728
0.00204734
0.00204744
0.00204756
0.00204773
0.00204793
0.00204816
0.00204844
0.00204876
0.00204913
0.00204957
0.00205009
0.00205075
0.00205165
0.00205288
0.00205464
0.00205725
0.0020613
0.00206786
0.0020796
0.00210468
0.00215536
0.00224085
0.00242291
0.00289696
0.00436545
0.00544684
0.0140116
0.0384666
0.0644718
0.097004
0.227747
0.180601
0.0157353
0.00255483
0.00214217
0.00207755
0.00206401
0.00206164
0.00206019
0.00205934
0.0020586
0.00205796
0.00205737
0.00205681
0.00205627
0.00205576
0.00205528
0.00205484
0.00205443
0.00205406
0.00205373
0.00205344
0.00205318
0.00205297
0.00205279
0.00205266
0.00205257
0.0020525
0.00200628
0.00200629
0.00200635
0.00200645
0.00200659
0.00200676
0.00200697
0.00200722
0.00200751
0.00200785
0.00200822
0.00200867
0.00200925
0.00200999
0.00201096
0.00201227
0.00201411
0.00201682
0.00202102
0.00202767
0.00203972
0.00206448
0.00211662
0.00220562
0.00239515
0.0030534
0.00436401
0.0059361
0.00899173
0.0185627
0.031877
0.0593434
0.185909
0.187349
0.0258169
0.00274857
0.00213793
0.00204687
0.00202639
0.00202252
0.00202058
0.00201942
0.00201848
0.00201764
0.0020169
0.00201623
0.00201563
0.00201506
0.00201452
0.00201403
0.00201357
0.00201316
0.0020128
0.00201248
0.0020122
0.00201197
0.00201178
0.00201164
0.00201155
0.00201147
0.00196683
0.00196684
0.00196691
0.00196701
0.00196715
0.00196733
0.00196756
0.00196781
0.00196811
0.00196844
0.00196883
0.00196933
0.00196994
0.00197072
0.00197173
0.00197309
0.00197498
0.00197775
0.00198201
0.00198861
0.0020007
0.00202503
0.00207857
0.00217031
0.00236026
0.00318327
0.00454871
0.011454
0.0130162
0.0126176
0.0197277
0.0558742
0.187348
0.174947
0.0302131
0.00287221
0.00213182
0.00201817
0.00199047
0.001985
0.00198262
0.00198104
0.00197989
0.00197888
0.00197799
0.0019772
0.0019765
0.00197588
0.00197529
0.00197474
0.00197424
0.0019738
0.0019734
0.00197306
0.00197276
0.00197251
0.00197231
0.00197215
0.00197206
0.00197198
0.00192884
0.00192885
0.00192892
0.00192903
0.00192917
0.00192936
0.00192958
0.00192984
0.00193013
0.00193048
0.00193091
0.00193142
0.00193206
0.00193286
0.00193389
0.00193527
0.00193719
0.00193996
0.00194421
0.0019507
0.00196267
0.00198648
0.00204122
0.00213464
0.00231872
0.00320065
0.00651054
0.0370798
0.0248118
0.0172367
0.0273488
0.0776705
0.197423
0.1547
0.0307866
0.00289648
0.00211629
0.00199007
0.00195574
0.00194881
0.00194608
0.00194413
0.00194269
0.00194152
0.00194051
0.0019396
0.00193881
0.00193811
0.00193748
0.00193689
0.00193636
0.00193587
0.00193545
0.00193508
0.00193476
0.0019345
0.00193428
0.00193412
0.00193402
0.00193394
0.00189224
0.00189224
0.00189232
0.00189243
0.00189258
0.00189276
0.00189297
0.00189322
0.00189353
0.0018939
0.00189434
0.00189487
0.00189552
0.00189633
0.00189737
0.00189875
0.00190067
0.00190342
0.00190761
0.00191399
0.00192569
0.00194894
0.00200454
0.00209793
0.00227251
0.00313632
0.014743
0.0556858
0.0215522
0.0218886
0.044148
0.10752
0.196309
0.132359
0.0292729
0.00286701
0.00209472
0.00196167
0.001922
0.00191384
0.00191081
0.00190855
0.00190688
0.00190549
0.00190432
0.00190331
0.00190246
0.0019017
0.00190101
0.00190039
0.00189983
0.00189931
0.00189886
0.00189847
0.00189813
0.00189785
0.00189763
0.00189746
0.00189735
0.00189727
0.00185694
0.00185695
0.00185702
0.00185713
0.00185728