/*--------------------------------*- C++ -*----------------------------------*\
  =========                 |
  \\      /  F ield         | OpenFOAM: The Open Source CFD Toolbox
   \\    /   O peration     | Website:  https://openfoam.org
    \\  /    A nd           | Version:  12
     \\/     M anipulation  |
\*---------------------------------------------------------------------------*/
FoamFile
{
    format      ascii;
    class       volScalarField;
    location    "460";
    object      nut;
}
// * * * * * * * * * * * * * * * * * * * * * * * * * * * * * * * * * * * * * //

dimensions      [0 2 -1 0 0 0 0];

internalField   nonuniform List<scalar> 
16227
(
0.000978543
0.000978543
0.000978543
0.000978543
0.000978543
0.000978543
0.000978543
0.000978543
0.000978543
0.000978543
0.000978543
0.000978543
0.000978544
0.000978544
0.000978544
0.000978544
0.000978544
0.000978544
0.000978544
0.000978544
0.000978544
0.000978544
0.000978544
0.000978544
0.000978544
0.000978544
0.000978544
0.000978544
0.000978544
0.000978544
0.000978544
0.000978544
0.000978544
0.000978544
0.000978544
0.000978544
0.000978544
0.000978544
0.000978544
0.000978544
0.000978544
0.000978544
0.000978544
0.000978544
0.000978544
0.000978544
0.000978544
0.000978544
0.000978544
0.000978544
0.000978544
0.000978544
0.000978543
0.000978543
0.000978543
0.000978543
0.000978543
0.000978543
0.000978543
0.000978543
0.000972834
0.000972834
0.000972834
0.000972834
0.000972834
0.000972834
0.000972834
0.000972834
0.000972834
0.000972834
0.000972835
0.000972835
0.000972836
0.000972836
0.000972836
0.000972836
0.000972836
0.000972836
0.000972836
0.000972836
0.000972837
0.000972837
0.000972837
0.000972837
0.000972837
0.000972837
0.000972837
0.000972837
0.000972837
0.000972836
0.000972837
0.000972837
0.000972837
0.000972837
0.000972837
0.000972837
0.000972837
0.000972837
0.000972837
0.000972837
0.000972837
0.000972837
0.000972837
0.000972837
0.000972837
0.000972836
0.000972836
0.000972837
0.000972837
0.000972836
0.000972836
0.000972836
0.000972835
0.000972835
0.000972835
0.000972834
0.000972835
0.000972834
0.000972834
0.000972834
0.000967494
0.000967494
0.000967494
0.000967494
0.000967494
0.000967495
0.000967494
0.000967494
0.000967494
0.000967494
0.000967495
0.000967495
0.000967497
0.000967498
0.000967498
0.000967498
0.000967498
0.000967498
0.000967498
0.000967497
0.000967498
0.000967498
0.000967498
0.000967498
0.000967498
0.000967498
0.000967498
0.000967498
0.000967498
0.000967497
0.000967498
0.000967498
0.000967498
0.000967498
0.000967498
0.000967498
0.000967498
0.000967498
0.000967498
0.000967498
0.000967498
0.000967498
0.000967498
0.000967498
0.000967498
0.000967498
0.000967498
0.000967498
0.000967498
0.000967498
0.000967497
0.000967496
0.000967495
0.000967495
0.000967495
0.000967495
0.000967495
0.000967494
0.000967494
0.000967494
0.000962481
0.000962481
0.000962481
0.000962481
0.000962481
0.000962482
0.000962482
0.000962481
0.000962481
0.000962481
0.000962482
0.000962482
0.000962485
0.000962485
0.000962485
0.000962486
0.000962486
0.000962486
0.000962485
0.000962484
0.000962485
0.000962485
0.000962485
0.000962485
0.000962485
0.000962485
0.000962485
0.000962485
0.000962485
0.000962485
0.000962485
0.000962486
0.000962486
0.000962486
0.000962486
0.000962486
0.000962486
0.000962486
0.000962487
0.000962487
0.000962487
0.000962487
0.000962487
0.000962487
0.000962487
0.000962487
0.000962487
0.000962487
0.000962487
0.000962486
0.000962485
0.000962483
0.000962482
0.000962482
0.000962483
0.000962483
0.000962482
0.000962482
0.000962482
0.000962482
0.000957759
0.000957759
0.000957759
0.000957759
0.00095776
0.00095776
0.00095776
0.00095776
0.00095776
0.00095776
0.00095776
0.000957761
0.000957763
0.000957764
0.000957764
0.000957764
0.000957764
0.000957764
0.000957762
0.000957761
0.000957763
0.000957764
0.000957764
0.000957764
0.000957764
0.000957764
0.000957764
0.000957764
0.000957764
0.000957763
0.000957764
0.000957764
0.000957765
0.000957765
0.000957765
0.000957765
0.000957765
0.000957766
0.000957766
0.000957766
0.000957766
0.000957766
0.000957766
0.000957767
0.000957767
0.000957767
0.000957767
0.000957767
0.000957767
0.000957766
0.000957763
0.000957762
0.000957761
0.000957762
0.000957762
0.000957762
0.000957762
0.000957761
0.000957761
0.000957761
0.000953299
0.000953299
0.000953299
0.000953299
0.000953299
0.0009533
0.0009533
0.0009533
0.000953299
0.000953299
0.000953299
0.0009533
0.0009533
0.000953304
0.000953304
0.000953304
0.000953304
0.000953303
0.0009533
0.0009533
0.000953302
0.000953303
0.000953303
0.000953303
0.000953303
0.000953303
0.000953303
0.000953303
0.000953303
0.000953302
0.000953303
0.000953304
0.000953304
0.000953304
0.000953305
0.000953305
0.000953306
0.000953306
0.000953306
0.000953307
0.000953307
0.000953307
0.000953308
0.000953308
0.000953308
0.000953308
0.000953308
0.000953308
0.000953308
0.000953307
0.000953304
0.000953303
0.000953302
0.000953303
0.000953303
0.000953303
0.000953303
0.000953302
0.000953302
0.000953302
0.000949075
0.000949075
0.000949075
0.000949075
0.000949075
0.000949075
0.000949076
0.000949075
0.000949075
0.000949075
0.000949074
0.000949074
0.000949075
0.000949078
0.000949079
0.000949079
0.000949079
0.000949075
0.000949074
0.000949074
0.000949076
0.000949077
0.000949077
0.000949077
0.000949076
0.000949076
0.000949076
0.000949076
0.000949076
0.000949075
0.000949077
0.000949078
0.000949078
0.000949079
0.000949079
0.00094908
0.000949081
0.000949081
0.000949082
0.000949083
0.000949083
0.000949084
0.000949084
0.000949085
0.000949085
0.000949085
0.000949085
0.000949086
0.000949085
0.000949082
0.00094908
0.000949079
0.00094908
0.00094908
0.00094908
0.00094908
0.00094908
0.000949079
0.000949079
0.000949079
0.000945064
0.000945064
0.000945064
0.000945064
0.000945064
0.000945064
0.000945064
0.000945064
0.000945064
0.000945063
0.000945062
0.000945062
0.000945062
0.000945063
0.000945067
0.000945068
0.000945067
0.000945062
0.000945061
0.000945061
0.000945063
0.000945064
0.000945063
0.000945063
0.000945063
0.000945063
0.000945063
0.000945063
0.000945062
0.000945062
0.000945063
0.000945064
0.000945065
0.000945066
0.000945067
0.000945068
0.000945069
0.00094507
0.000945071
0.000945072
0.000945073
0.000945073
0.000945074
0.000945075
0.000945075
0.000945076
0.000945076
0.000945076
0.000945075
0.000945072
0.00094507
0.00094507
0.000945071
0.000945071
0.000945071
0.000945071
0.000945071
0.00094507
0.00094507
0.00094507
0.000941247
0.000941247
0.000941247
0.000941247
0.000941247
0.000941247
0.000941247
0.000941247
0.000941247
0.000941246
0.000941245
0.000941244
0.000941244
0.000941244
0.000941249
0.00094125
0.000941247
0.000941243
0.000941242
0.000941241
0.000941244
0.000941244
0.000941243
0.000941243
0.000941242
0.000941242
0.000941242
0.000941242
0.000941242
0.000941241
0.000941243
0.000941244
0.000941245
0.000941247
0.000941248
0.000941249
0.000941251
0.000941252
0.000941253
0.000941255
0.000941256
0.000941257
0.000941258
0.000941259
0.00094126
0.000941261
0.000941261
0.000941261
0.000941257
0.000941256
0.000941255
0.000941256
0.000941256
0.000941257
0.000941257
0.000941257
0.000941256
0.000941256
0.000941256
0.000941256
0.000937608
0.000937608
0.000937607
0.000937607
0.000937607
0.000937607
0.000937607
0.000937607
0.000937606
0.000937606
0.000937604
0.000937603
0.000937603
0.000937604
0.000937607
0.000937608
0.000937603
0.0009376
0.000937599
0.000937599
0.000937601
0.000937601
0.0009376
0.000937599
0.000937598
0.000937598
0.000937598
0.000937598
0.000937598
0.000937597
0.000937599
0.0009376
0.000937602
0.000937603
0.000937605
0.000937607
0.000937609
0.000937611
0.000937613
0.000937615
0.000937616
0.000937618
0.00093762
0.000937621
0.000937622
0.000937623
0.000937624
0.000937623
0.00093762
0.000937618
0.000937618
0.000937619
0.000937619
0.00093762
0.00093762
0.00093762
0.00093762
0.00093762
0.00093762
0.00093762
0.000934131
0.000934131
0.000934131
0.00093413
0.00093413
0.00093413
0.00093413
0.000934129
0.000934129
0.000934128
0.000934127
0.000934125
0.000934123
0.000934124
0.000934125
0.000934127
0.000934123
0.00093412
0.000934118
0.000934118
0.000934119
0.000934119
0.000934118
0.000934117
0.000934116
0.000934115
0.000934115
0.000934115
0.000934115
0.000934114
0.000934116
0.000934118
0.00093412
0.000934122
0.000934124
0.000934127
0.000934129
0.000934132
0.000934134
0.000934137
0.000934139
0.000934141
0.000934143
0.000934145
0.000934147
0.000934148
0.000934148
0.000934147
0.000934145
0.000934144
0.000934144
0.000934145
0.000934146
0.000934146
0.000934147
0.000934147
0.000934146
0.000934146
0.000934146
0.000934146
0.000930803
0.000930803
0.000930803
0.000930803
0.000930803
0.000930802
0.000930802
0.000930802
0.000930801
0.0009308
0.000930798
0.000930796
0.000930794
0.000930793
0.000930794
0.000930795
0.000930792
0.000930789
0.000930787
0.000930785
0.000930784
0.000930786
0.000930785
0.000930783
0.000930782
0.000930781
0.00093078
0.00093078
0.00093078
0.00093078
0.000930782
0.000930784
0.000930787
0.000930789
0.000930792
0.000930795
0.000930798
0.000930802
0.000930805
0.000930808
0.000930811
0.000930814
0.000930817
0.000930819
0.000930821
0.000930822
0.000930821
0.000930821
0.00093082
0.00093082
0.00093082
0.000930821
0.000930822
0.000930823
0.000930823
0.000930823
0.000930823
0.000930823
0.000930823
0.000930823
0.000927614
0.000927614
0.000927614
0.000927613
0.000927613
0.000927613
0.000927612
0.000927612
0.000927611
0.000927609
0.000927608
0.000927606
0.000927603
0.000927601
0.0009276
0.000927599
0.000927598
0.000927595
0.000927592
0.00092759
0.000927588
0.00092759
0.000927589
0.000927587
0.000927585
0.000927584
0.000927583
0.000927583
0.000927583
0.000927582
0.000927585
0.000927588
0.00092759
0.000927594
0.000927597
0.000927601
0.000927605
0.000927609
0.000927613
0.000927617
0.000927621
0.000927625
0.000927628
0.000927631
0.000927633
0.000927634
0.000927633
0.000927634
0.000927633
0.000927633
0.000927634
0.000927635
0.000927636
0.000927637
0.000927638
0.000927638
0.000927638
0.000927638
0.000927638
0.000927638
0.000924553
0.000924553
0.000924552
0.000924552
0.000924551
0.000924551
0.00092455
0.000924549
0.000924548
0.000924547
0.000924545
0.000924542
0.00092454
0.000924537
0.000924534
0.000924533
0.000924532
0.000924529
0.000924526
0.000924523
0.00092452
0.000924521
0.00092452
0.000924517
0.000924515
0.000924513
0.000924512
0.000924512
0.000924511
0.000924511
0.000924514
0.000924517
0.000924521
0.000924525
0.000924529
0.000924534
0.000924539
0.000924543
0.000924548
0.000924554
0.000924558
0.000924563
0.000924567
0.00092457
0.000924572
0.000924573
0.000924574
0.000924575
0.000924575
0.000924576
0.000924577
0.000924578
0.000924579
0.00092458
0.000924581
0.000924581
0.000924581
0.000924581
0.000924581
0.000924581
0.00092161
0.00092161
0.000921609
0.000921609
0.000921608
0.000921608
0.000921607
0.000921606
0.000921604
0.000921603
0.0009216
0.000921598
0.000921595
0.000921592
0.000921589
0.000921586
0.000921585
0.000921581
0.000921577
0.000921574
0.00092157
0.000921571
0.000921568
0.000921565
0.000921562
0.00092156
0.000921559
0.000921558
0.000921558
0.000921558
0.000921561
0.000921565
0.000921569
0.000921573
0.000921579
0.000921584
0.00092159
0.000921596
0.000921602
0.000921608
0.000921614
0.000921619
0.000921624
0.000921628
0.000921628
0.000921631
0.000921633
0.000921635
0.000921636
0.000921636
0.000921638
0.000921639
0.000921641
0.000921642
0.000921643
0.000921643
0.000921643
0.000921643
0.000921643
0.000921643
0.000918777
0.000918777
0.000918777
0.000918776
0.000918775
0.000918775
0.000918774
0.000918773
0.000918771
0.000918769
0.000918766
0.000918763
0.00091876
0.000918756
0.000918753
0.00091875
0.000918748
0.000918744
0.000918739
0.000918735
0.00091873
0.000918729
0.000918727
0.000918723
0.00091872
0.000918717
0.000918715
0.000918714
0.000918714
0.000918714
0.000918718
0.000918722
0.000918726
0.000918732
0.000918738
0.000918745
0.000918752
0.000918759
0.000918766
0.000918773
0.00091878
0.000918786
0.000918792
0.000918795
0.000918797
0.0009188
0.000918803
0.000918805
0.000918806
0.000918808
0.00091881
0.000918812
0.000918813
0.000918814
0.000918815
0.000918816
0.000918816
0.000918816
0.000918816
0.000918816
0.000916048
0.000916047
0.000916047
0.000916046
0.000916046
0.000916045
0.000916044
0.000916043
0.000916041
0.000916038
0.000916036
0.000916032
0.000916028
0.000916024
0.00091602
0.000916017
0.000916014
0.000916009
0.000916004
0.000915998
0.000915993
0.000915989
0.000915987
0.000915984
0.00091598
0.000915976
0.000915974
0.000915973
0.000915973
0.000915973
0.000915977
0.000915981
0.000915987
0.000915993
0.000916
0.000916008
0.000916016
0.000916025
0.000916033
0.000916041
0.000916049
0.000916056
0.000916061
0.000916065
0.000916069
0.000916073
0.000916077
0.000916078
0.00091608
0.000916083
0.000916085
0.000916087
0.000916089
0.00091609
0.000916091
0.000916092
0.000916092
0.000916092
0.000916092
0.000916092
0.000913414
0.000913414
0.000913414
0.000913413
0.000913412
0.000913411
0.00091341
0.000913409
0.000913407
0.000913404
0.000913401
0.000913398
0.000913393
0.000913389
0.000913384
0.000913381
0.000913377
0.000913372
0.000913365
0.000913358
0.000913352
0.000913346
0.000913345
0.000913341
0.000913336
0.000913332
0.00091333
0.000913328
0.000913328
0.000913328
0.000913333
0.000913338
0.000913344
0.000913351
0.000913359
0.000913368
0.000913378
0.000913387
0.000913397
0.000913406
0.000913415
0.000913422
0.000913426
0.000913432
0.000913438
0.000913443
0.000913447
0.000913449
0.000913452
0.000913455
0.000913457
0.000913459
0.000913461
0.000913463
0.000913464
0.000913464
0.000913465
0.000913465
0.000913465
0.000913465
0.000910871
0.000910871
0.000910871
0.00091087
0.000910869
0.000910868
0.000910867
0.000910866
0.000910864
0.000910861
0.000910858
0.000910854
0.000910849
0.000910844
0.000910839
0.000910835
0.000910831
0.000910825
0.000910817
0.00091081
0.000910803
0.000910796
0.000910793
0.000910789
0.000910784
0.00091078
0.000910777
0.000910775
0.000910775
0.000910775
0.00091078
0.000910786
0.000910793
0.000910801
0.00091081
0.00091082
0.000910831
0.000910841
0.000910852
0.000910862
0.000910872
0.000910879
0.000910884
0.000910891
0.000910897
0.000910903
0.000910907
0.00091091
0.000910914
0.000910917
0.00091092
0.000910922
0.000910924
0.000910926
0.000910927
0.000910928
0.000910928
0.000910928
0.000910928
0.000910928
0.000908413
0.000908413
0.000908412
0.000908412
0.000908411
0.00090841
0.000908409
0.000908407
0.000908405
0.000908402
0.000908399
0.000908395
0.00090839
0.000908385
0.00090838
0.000908375
0.00090837
0.000908363
0.000908356
0.000908348
0.00090834
0.000908332
0.000908326
0.000908324
0.000908319
0.000908314
0.000908312
0.00090831
0.00090831
0.000908311
0.000908317
0.000908323
0.000908331
0.000908339
0.000908349
0.00090836
0.000908371
0.000908382
0.000908393
0.000908403
0.000908412
0.00090842
0.000908428
0.000908436
0.000908443
0.000908449
0.000908453
0.000908457
0.000908461
0.000908464
0.000908467
0.00090847
0.000908472
0.000908473
0.000908475
0.000908475
0.000908476
0.000908476
0.000908476
0.000908476
0.000906035
0.000906034
0.000906034
0.000906033
0.000906033
0.000906032
0.000906031
0.000906029
0.000906027
0.000906024
0.000906021
0.000906017
0.000906012
0.000906007
0.000906001
0.000905995
0.000905989
0.000905983
0.000905976
0.000905968
0.00090596
0.000905952
0.000905945
0.000905943
0.000905938
0.000905934
0.000905932
0.000905932
0.000905933
0.000905934
0.000905941
0.000905947
0.000905955
0.000905964
0.000905974
0.000905984
0.000905995
0.000906005
0.000906016
0.000906026
0.000906035
0.000906044
0.000906053
0.000906061
0.000906069
0.000906074
0.000906079
0.000906084
0.000906088
0.000906092
0.000906095
0.000906097
0.0009061
0.000906101
0.000906102
0.000906103
0.000906103
0.000906104
0.000906104
0.000906104
0.000903731
0.000903731
0.000903731
0.00090373
0.00090373
0.000903729
0.000903728
0.000903726
0.000903724
0.000903722
0.000903719
0.000903715
0.00090371
0.000903705
0.000903699
0.000903693
0.000903687
0.000903682
0.000903675
0.000903667
0.000903659
0.000903652
0.000903647
0.000903644
0.000903641
0.000903639
0.000903639
0.000903641
0.000903644
0.000903648
0.000903654
0.000903661
0.000903668
0.000903676
0.000903684
0.000903694
0.000903702
0.000903709
0.000903718
0.000903728
0.000903736
0.000903746
0.000903755
0.000903764
0.000903771
0.000903777
0.000903782
0.000903787
0.000903792
0.000903795
0.000903798
0.000903801
0.000903803
0.000903804
0.000903805
0.000903806
0.000903806
0.000903806
0.000903807
0.000903806
0.000901499
0.000901499
0.000901498
0.000901498
0.000901498
0.000901497
0.000901496
0.000901495
0.000901493
0.000901491
0.000901488
0.000901485
0.00090148
0.000901476
0.00090147
0.000901464
0.000901459
0.000901455
0.000901449
0.000901443
0.000901438
0.000901433
0.000901431
0.000901429
0.000901435
0.000901437
0.000901442
0.000901449
0.000901456
0.00090146
0.000901466
0.000901471
0.000901475
0.000901479
0.000901485
0.000901492
0.000901491
0.000901493
0.000901497
0.000901504
0.000901513
0.000901522
0.000901531
0.000901539
0.000901545
0.000901551
0.000901557
0.000901562
0.000901566
0.00090157
0.000901573
0.000901575
0.000901577
0.000901578
0.000901579
0.00090158
0.00090158
0.00090158
0.00090158
0.00090158
0.000899334
0.000899333
0.000899333
0.000899333
0.000899333
0.000899332
0.000899332
0.000899331
0.00089933
0.000899328
0.000899326
0.000899323
0.00089932
0.000899316
0.000899311
0.000899306
0.000899302
0.000899299
0.000899297
0.000899295
0.000899295
0.000899297
0.000899303
0.000899316
0.00090033
0.000900341
0.000900351
0.000900363
0.000900373
0.000900379
0.000900385
0.000900387
0.000900387
0.000900387
0.000900389
0.000900392
0.000899384
0.000899355
0.000899353
0.000899356
0.000899362
0.000899369
0.000899377
0.000899383
0.000899389
0.000899395
0.0008994
0.000899405
0.000899409
0.000899412
0.000899415
0.000899417
0.000899419
0.00089942
0.00089942
0.000899421
0.000899421
0.000899421
0.000899421
0.000899421
0.000897232
0.000897232
0.000897232
0.000897232
0.000897232
0.000897232
0.000897232
0.000897232
0.000897231
0.00089723
0.000897229
0.000897227
0.000897224
0.000897222
0.000897219
0.000897216
0.000897214
0.000897214
0.000897216
0.000897222
0.000897232
0.00089725
0.000897273
0.00089826
0.000898213
0.00089824
0.000898268
0.000898298
0.000898322
0.000898333
0.000898336
0.000898328
0.000898314
0.0008983
0.000898289
0.000898271
0.000898324
0.000897316
0.000897285
0.00089728
0.000897281
0.000897285
0.00089729
0.000897294
0.000897298
0.000897304
0.000897308
0.000897313
0.000897316
0.000897319
0.000897321
0.000897322
0.000897324
0.000897324
0.000897325
0.000897325
0.000897325
0.000897325
0.000897325
0.000897324
0.00089519
0.00089519
0.00089519
0.000895191
0.000895191
0.000895192
0.000895192
0.000895193
0.000895193
0.000895193
0.000895193
0.000895192
0.000895192
0.000895191
0.000895191
0.000895192
0.000895194
0.000895199
0.00089521
0.000895227
0.000895255
0.000895299
0.000895336
0.000896237
0.000896249
0.000896743
0.000896814
0.000896878
0.000896921
0.000896935
0.000896924
0.000896889
0.000896845
0.000896804
0.000896778
0.000896278
0.000896277
0.000895361
0.000895292
0.000895274
0.000895268
0.000895266
0.000895266
0.000895268
0.000895271
0.000895275
0.000895278
0.000895282
0.000895284
0.000895286
0.000895287
0.000895288
0.000895289
0.000895289
0.00089529
0.000895289
0.000895289
0.000895289
0.000895288
0.000895288
0.000893206
0.000893206
0.000893206
0.000893207
0.000893208
0.000893209
0.00089321
0.000893212
0.000893213
0.000893214
0.000893216
0.000893217
0.000893219
0.000893221
0.000893225
0.000893231
0.000893239
0.000893253
0.000893276
0.000893311
0.000893368
0.000893452
0.00089351
0.000894341
0.000894494
0.000894853
0.000895096
0.000895256
0.000895354
0.00089537
0.000895303
0.000895182
0.00089504
0.000894919
0.000894838
0.000894452
0.000894316
0.000893496
0.000893376
0.000893338
0.00089332
0.000893309
0.000893304
0.000893303
0.000893304
0.000893305
0.000893307
0.000893309
0.00089331
0.000893311
0.000893312
0.000893312
0.000893312
0.000893312
0.000893311
0.000893311
0.00089331
0.000893309
0.000893309
0.000893308
0.000891276
0.000891275
0.000891276
0.000891277
0.000891279
0.000891281
0.000891283
0.000891285
0.000891288
0.000891291
0.000891294
0.000891298
0.000891303
0.00089131
0.000891319
0.000891331
0.000891349
0.000891376
0.000891417
0.00089148
0.000891579
0.000891719
0.000891819
0.000892627
0.00089297
0.000893163
0.000893778
0.000894134
0.000894395
0.00089448
0.000894339
0.000894031
0.000893653
0.000893319
0.000893085
0.000892875
0.000892454
0.000891722
0.000891539
0.000891469
0.000891435
0.000891414
0.000891403
0.000891397
0.000891394
0.000891392
0.000891392
0.000891392
0.000891391
0.000891391
0.00089139
0.00089139
0.000891389
0.000891388
0.000891387
0.000891386
0.000891385
0.000891384
0.000891383
0.000891382
0.000889397
0.000889397
0.000889398
0.000889399
0.000889401
0.000889404
0.000889408
0.000889411
0.000889416
0.000889421
0.000889426
0.000889434
0.000889443
0.000889454
0.00088947
0.000889492
0.000889522
0.000889568
0.000889635
0.000889738
0.000889902
0.000890117
0.000890312
0.000891174
0.000891751
0.00089191
0.000893241
0.000894086
0.000894868
0.000895285
0.000895042
0.000894207
0.000893146
0.000892227
0.000891589
0.000891628
0.000890707
0.000890036
0.00088978
0.000889667
0.000889611
0.000889579
0.000889558
0.000889546
0.000889538
0.000889533
0.00088953
0.000889527
0.000889525
0.000889523
0.000889521
0.000889519
0.000889517
0.000889515
0.000889514
0.000889512
0.000889511
0.000889509
0.000889509
0.000889508
0.000887567
0.000887567
0.000887568
0.00088757
0.000887573
0.000887577
0.000887581
0.000887587
0.000887593
0.0008876
0.000887609
0.00088762
0.000887634
0.000887652
0.000887676
0.00088771
0.000887757
0.000887827
0.000887931
0.000888091
0.000888347
0.000888674
0.00088907
0.000890103
0.000890988
0.000891522
0.000894296
0.000896608
0.000899327
0.00090132
0.000900929
0.000898163
0.000894797
0.000892181
0.00089054
0.000890724
0.000889109
0.000888424
0.000888096
0.000887932
0.000887848
0.000887799
0.000887768
0.000887748
0.000887735
0.000887725
0.000887718
0.000887713
0.000887708
0.000887705
0.000887701
0.000887698
0.000887695
0.000887692
0.000887689
0.000887687
0.000887685
0.000887683
0.000887682
0.000887681
0.000885784
0.000885784
0.000885785
0.000885788
0.000885792
0.000885797
0.000885802
0.000885809
0.000885818
0.000885828
0.00088584
0.000885855
0.000885875
0.000885901
0.000885935
0.000885984
0.000886052
0.000886154
0.000886306
0.000886543
0.000886924
0.000887431
0.000888208
0.000889576
0.000890983
0.000892803
0.00089859
0.000905782
0.000917312
0.000928709
0.000928289
0.000915647
0.000902631
0.000894564
0.000890388
0.000890072
0.000887707
0.000886861
0.000886474
0.000886257
0.00088614
0.000886073
0.000886029
0.000886
0.00088598
0.000885966
0.000885955
0.000885947
0.00088594
0.000885933
0.000885928
0.000885923
0.000885919
0.000885915
0.000885911
0.000885908
0.000885905
0.000885904
0.000885902
0.000885901
0.000884044
0.000884045
0.000884047
0.00088405
0.000884055
0.000884061
0.000884068
0.000884077
0.000884088
0.000884101
0.000884117
0.000884137
0.000884163
0.000884198
0.000884245
0.00088431
0.000884405
0.000884545
0.000884759
0.000885096
0.000885642
0.000886437
0.000887862
0.000889774
0.000892247
0.000896881
0.000909071
0.000932093
0.000435209
0.000276479
0.00028222
0.000441784
0.00093021
0.000902876
0.000892053
0.00088951
0.000886526
0.000885316
0.000884895
0.000884634
0.000884481
0.000884394
0.000884338
0.0008843
0.000884273
0.000884253
0.000884238
0.000884226
0.000884216
0.000884207
0.000884199
0.000884193
0.000884187
0.000884182
0.000884177
0.000884173
0.00088417
0.000884168
0.000884166
0.000884164
0.000882348
0.000882348
0.000882351
0.000882354
0.00088236
0.000882367
0.000882376
0.000882387
0.0008824
0.000882416
0.000882437
0.000882462
0.000882496
0.00088254
0.000882601
0.000882687
0.000882812
0.000882998
0.000883287
0.000883747
0.000884501
0.00088574
0.000888136
0.000890833
0.000895418
0.00090484
0.000929335
0.000562947
0.000211486
9.97633e-05
0.00011396
0.000191541
0.00044456
0.000924304
0.000896821
0.000888955
0.000885522
0.000883763
0.000883332
0.000883049
0.000882862
0.000882759
0.00088269
0.000882643
0.000882609
0.000882584
0.000882564
0.000882548
0.000882535
0.000882523
0.000882513
0.000882505
0.000882497
0.000882491
0.000882485
0.00088248
0.000882476
0.000882473
0.000882471
0.00088247
0.000880691
0.000880691
0.000880694
0.000880699
0.000880705
0.000880714
0.000880724
0.000880737
0.000880753
0.000880773
0.000880797
0.000880829
0.00088087
0.000880926
0.000881002
0.00088111
0.000881268
0.000881508
0.000881883
0.000882489
0.000883494
0.00088536
0.000889046
0.000892799
0.000901026
0.000916874
0.000955441
0.000757038
0.000271137
0.000211921
0.000306542
0.000943849
0.000905006
0.00088853
0.000884531
0.000882192
0.000881769
0.000881488
0.000881278
0.000881161
0.000881083
0.000881028
0.000880987
0.000880956
0.000880931
0.000880911
0.000880894
0.00088088
0.000880867
0.000880856
0.000880847
0.000880839
0.000880832
0.000880827
0.000880822
0.000880818
0.000880816
0.000880814
0.000879072
0.000879073
0.000879076
0.000879082
0.000879089
0.000879099
0.000879111
0.000879126
0.000879144
0.000879168
0.000879197
0.000879234
0.000879284
0.000879351
0.000879443
0.000879575
0.000879769
0.000880066
0.000880537
0.000881306
0.0008826
0.00088526
0.000890471
0.00089562
0.00090927
0.000932543
0.000978841
0.000790928
0.00126802
0.00014322
0.00029152
0.000330873
0.000915232
0.00091382
0.000888366
0.000883359
0.00088062
0.000880205
0.000879945
0.000879724
0.000879602
0.000879515
0.000879453
0.000879406
0.000879369
0.000879339
0.000879314
0.000879293
0.000879276
0.00087926
0.000879247
0.000879236
0.000879226
0.000879218
0.000879211
0.000879206
0.000879202
0.000879199
0.000879197
0.00087749
0.000877491
0.000877495
0.000877501
0.000877509
0.00087752
0.000877534
0.000877551
0.000877572
0.000877599
0.000877633
0.000877676
0.000877734
0.000877812
0.000877921
0.000878077
0.000878309
0.000878664
0.000879233
0.000880176
0.000881777
0.000885319
0.000892117
0.000899101
0.000919489
0.000951726
0.00100396
0.00112105
0.00340651
0.00131819
0.000999872
0.000506384
0.000519983
0.00104784
0.000919796
0.00088813
0.000881959
0.000879072
0.000878654
0.000878424
0.000878203
0.000878078
0.000877987
0.000877918
0.000877864
0.00087782
0.000877785
0.000877755
0.00087773
0.000877709
0.000877691
0.000877675
0.000877662
0.00087765
0.00087764
0.000877632
0.000877626
0.000877621
0.000877618
0.000877616
0.000875943
0.000875944
0.000875949
0.000875955
0.000875964
0.000875976
0.000875992
0.000876011
0.000876035
0.000876065
0.000876103
0.000876152
0.000876218
0.000876307
0.000876432
0.000876611
0.00087688
0.000877293
0.000877957
0.000879071
0.000880975
0.000885363
0.000893578
0.000902852
0.000929705
0.000972378
0.00104163
0.00203814
0.003999
0.0044132
0.00266885
0.00100851
0.000922678
0.00110739
0.000927039
0.000887102
0.000880654
0.000877599
0.000877145
0.00087694
0.00087672
0.000876594
0.000876496
0.000876421
0.000876359
0.000876309
0.000876268
0.000876233
0.000876203
0.000876178
0.000876156
0.000876138
0.000876122
0.000876109
0.000876097
0.000876088
0.000876081
0.000876075
0.000876071
0.000876069
0.00087443
0.000874431
0.000874436
0.000874443
0.000874453
0.000874466
0.000874483
0.000874504
0.00087453
0.000874563
0.000874605
0.00087466
0.000874733
0.000874833
0.000874972
0.000875174
0.000875475
0.000875941
0.000876693
0.000877963
0.000880139
0.00088521
0.00089452
0.00090629
0.000937967
0.000990681
0.0011039
0.00202184
0.00653234
0.0143178
0.0156738
0.00740815
0.00158201
0.00127162
0.00095334
0.000887671
0.000880076
0.000876307
0.000875712
0.000875515
0.000875284
0.000875152
0.000875046
0.000874961
0.000874891
0.000874834
0.000874785
0.000874745
0.00087471
0.000874681
0.000874656
0.000874634
0.000874616
0.0008746
0.000874587
0.000874577
0.000874568
0.000874562
0.000874558
0.000874555
0.000872948
0.000872949
0.000872954
0.000872962
0.000872973
0.000872987
0.000873005
0.000873028
0.000873056
0.000873092
0.000873138
0.000873198
0.000873278
0.000873386
0.000873538
0.000873759
0.00087409
0.000874604
0.000875432
0.000876829
0.000879247
0.000884797
0.000894949
0.000909046
0.000943997
0.00100537
0.0011787
0.00163168
0.0108684
0.012794
0.0216796
0.0302714
0.0184298
0.00465219
0.00104838
0.000900665
0.000880798
0.00087541
0.0008744
0.000874171
0.000873908
0.000873758
0.000873637
0.00087354
0.000873459
0.000873393
0.000873337
0.00087329
0.00087325
0.000873216
0.000873187
0.000873162
0.000873141
0.000873124
0.000873109
0.000873097
0.000873087
0.00087308
0.000873076
0.000873072
0.000871497
0.000871498
0.000871504
0.000871512
0.000871524
0.000871539
0.000871558
0.000871582
0.000871612
0.000871651
0.0008717
0.000871764
0.000871849
0.000871965
0.000872128
0.000872366
0.000872724
0.000873278
0.000874169
0.000875665
0.000878302
0.000884115
0.000894922
0.000910955
0.000949065
0.00102371
0.00124769
0.00137197
0.00968016
0.0179325
0.0257941
0.0380868
0.0327262
0.0113789
0.00180867
0.000934608
0.000883694
0.000875153
0.000873261
0.000872913
0.000872594
0.000872411
0.000872268
0.000872156
0.000872063
0.000871986
0.000871921
0.000871867
0.000871821
0.000871782
0.000871749
0.000871721
0.000871698
0.000871678
0.000871661
0.000871648
0.000871637
0.000871629
0.000871624
0.00087162
0.000870076
0.000870077
0.000870083
0.000870091
0.000870103
0.000870119
0.00087014
0.000870165
0.000870197
0.000870238
0.000870289
0.000870356
0.000870446
0.000870568
0.000870742
0.000870994
0.000871373
0.000871959
0.000872903
0.000874465
0.000877281
0.000883214
0.000894615
0.000912327
0.000953803
0.00105586
0.00129265
0.0013074
0.00502502
0.0174834
0.0358988
0.0543111
0.0405047
0.0155082
0.00359579
0.000987028
0.00088944
0.000875577
0.000872327
0.000871738
0.000871345
0.000871116
0.000870942
0.000870807
0.000870699
0.00087061
0.000870536
0.000870475
0.000870423
0.000870379
0.000870341
0.00087031
0.000870283
0.000870261
0.000870242
0.000870227
0.000870216
0.000870207
0.000870201
0.000870197
0.000868683
0.000868684
0.00086869
0.000868699
0.000868712
0.000868728
0.000868749
0.000868776
0.000868809
0.000868851
0.000868904
0.000868974
0.000869067
0.000869197