/*--------------------------------*- C++ -*----------------------------------*\
  =========                 |
  \\      /  F ield         | OpenFOAM: The Open Source CFD Toolbox
   \\    /   O peration     | Website:  https://openfoam.org
    \\  /    A nd           | Version:  12
     \\/     M anipulation  |
\*---------------------------------------------------------------------------*/
FoamFile
{
    format      ascii;
    class       volScalarField;
    location    "460";
    object      omega;
}
// * * * * * * * * * * * * * * * * * * * * * * * * * * * * * * * * * * * * * //

dimensions      [0 0 -1 0 0 0 0];

internalField   nonuniform List<scalar> 
16227
(
9.34702
9.34704
9.34704
9.34707
9.34706
9.3471
9.34709
9.34708
9.34707
9.34709
9.34713
9.34715
9.3472
9.3472
9.3472
9.3472
9.3472
9.3472
9.3472
9.3472
9.3472
9.3472
9.3472
9.3472
9.3472
9.3472
9.3472
9.34722
9.34722
9.3472
9.34721
9.3472
9.3472
9.3472
9.34721
9.3472
9.3472
9.3472
9.3472
9.3472
9.3472
9.3472
9.3472
9.3472
9.3472
9.3472
9.3472
9.34719
9.34717
9.34717
9.34717
9.34716
9.3471
9.3471
9.34706
9.34705
9.34707
9.34705
9.34703
9.34702
8.71805
8.71807
8.71807
8.7181
8.7181
8.71814
8.71813
8.7181
8.71811
8.71812
8.71817
8.71819
8.71833
8.71839
8.7184
8.7184
8.7184
8.7184
8.7184
8.7184
8.71841
8.71842
8.71842
8.71842
8.71842
8.71842
8.71842
8.71842
8.7184
8.71835
8.71841
8.71843
8.71843
8.71843
8.71843
8.71842
8.7184
8.71841
8.71841
8.71841
8.71841
8.71841
8.71841
8.7184
8.7184
8.71838
8.71838
8.71839
8.71839
8.71837
8.71835
8.7183
8.71818
8.71817
8.71813
8.71811
8.71815
8.71807
8.71809
8.71806
8.16618
8.1662
8.1662
8.16622
8.16621
8.1663
8.16625
8.16624
8.16625
8.16626
8.1663
8.16632
8.16656
8.16662
8.16663
8.16664
8.16663
8.16663
8.16665
8.1666
8.16663
8.16664
8.16664
8.16664
8.16664
8.16664
8.16664
8.16665
8.16664
8.16657
8.16663
8.16665
8.16666
8.16666
8.16667
8.16667
8.16667
8.16667
8.16666
8.16666
8.16667
8.16667
8.16666
8.16666
8.16666
8.16666
8.16665
8.16665
8.16665
8.16662
8.16659
8.1664
8.16632
8.16631
8.16629
8.16629
8.16632
8.16623
8.16624
8.16622
7.67828
7.6783
7.6783
7.67832
7.67832
7.67838
7.67838
7.67835
7.67835
7.67835
7.67839
7.67844
7.6787
7.67877
7.67878
7.67879
7.6788
7.67881
7.67875
7.67862
7.67873
7.67877
7.67877
7.67877
7.67878
7.67878
7.67878
7.67878
7.67876
7.67869
7.67877
7.67879
7.67879
7.6788
7.67881
7.67883
7.67884
7.67884
7.67885
7.67886
7.67887
7.67887
7.67887
7.67887
7.67887
7.67887
7.67887
7.67887
7.67888
7.67885
7.67873
7.67854
7.67845
7.67847
7.67847
7.67848
7.67846
7.67839
7.67839
7.67837
7.24402
7.24403
7.24403
7.24405
7.24405
7.24411
7.24413
7.24407
7.24408
7.24408
7.24411
7.24416
7.2444
7.24452
7.24454
7.24453
7.24453
7.24451
7.2443
7.24423
7.24441
7.24448
7.24448
7.24447
7.24446
7.24446
7.24446
7.24447
7.24445
7.24436
7.24446
7.2445
7.24452
7.24453
7.24455
7.24457
7.24459
7.24462
7.24463
7.24464
7.24467
7.24469
7.24469
7.2447
7.2447
7.24472
7.24472
7.24472
7.24472
7.24465
7.24441
7.2443
7.24423
7.24426
7.24428
7.24432
7.24426
7.24419
7.24419
7.24418
6.85514
6.85516
6.85515
6.85516
6.85516
6.85521
6.85524
6.85519
6.85516
6.85515
6.85516
6.85518
6.85529
6.85556
6.85562
6.85563
6.85562
6.85551
6.85527
6.85523
6.85544
6.8555
6.85549
6.85547
6.85547
6.85547
6.85547
6.85546
6.85545
6.85537
6.85548
6.85552
6.85555
6.85559
6.85562
6.85565
6.85569
6.85573
6.85576
6.85579
6.85582
6.85584
6.85587
6.8559
6.85591
6.85593
6.85594
6.85595
6.85595
6.85582
6.85559
6.85548
6.85544
6.85549
6.85553
6.85552
6.85547
6.85541
6.85541
6.8554
6.50498
6.505
6.50499
6.505
6.505
6.50503
6.50506
6.50504
6.50499
6.50497
6.50495
6.50494
6.50503
6.50528
6.5054
6.5054
6.50536
6.50507
6.50494
6.50493
6.50514
6.50519
6.50516
6.50515
6.50513
6.50512
6.50512
6.50513
6.50512
6.50503
6.50515
6.50522
6.50526
6.50531
6.50536
6.50541
6.50547
6.50553
6.50558
6.50564
6.50568
6.50573
6.50577
6.5058
6.50585
6.50587
6.50589
6.50591
6.50585
6.50559
6.50547
6.5054
6.5054
6.50547
6.50548
6.50548
6.50543
6.50538
6.50539
6.50537
6.18814
6.18814
6.18813
6.18815
6.18813
6.18816
6.18818
6.18817
6.18811
6.18806
6.18803
6.18797
6.188
6.18812
6.18838
6.18845
6.18837
6.18802
6.1879
6.18788
6.1881
6.18813
6.18809
6.18806
6.18803
6.18802
6.18802
6.18802
6.188
6.18793
6.18807
6.18815
6.18822
6.18828
6.18836
6.18844
6.18852
6.1886
6.18868
6.18876
6.18884
6.18889
6.18896
6.18902
6.18907
6.1891
6.18914
6.18916
6.18904
6.1888
6.18869
6.18866
6.18872
6.18876
6.18876
6.18876
6.18872
6.18867
6.18868
6.18866
5.90012
5.90012
5.90012
5.90011
5.9001
5.90011
5.90013
5.9001
5.90007
5.9
5.89994
5.89985
5.89985
5.89992
5.90023
5.90029
5.90012
5.89978
5.89967
5.89963
5.89983
5.89985
5.89979
5.89974
5.89971
5.89969
5.89967
5.89968
5.89967
5.8996
5.89975
5.89985
5.89994
5.90004
5.90014
5.90024
5.90036
5.90048
5.90058
5.90068
5.90079
5.90089
5.90097
5.90105
5.90111
5.90119
5.90122
5.90118
5.90094
5.90083
5.90077
5.90081
5.90084
5.90088
5.90089
5.90089
5.90086
5.90082
5.90082
5.90082
5.63722
5.63722
5.63721
5.63721
5.63718
5.63719
5.6372
5.63716
5.63711
5.63707
5.63697
5.63686
5.63684
5.6369
5.63713
5.63719
5.63685
5.63662
5.63651
5.63647
5.63664
5.63663
5.63656
5.6365
5.63644
5.63641
5.6364
5.6364
5.6364
5.63634
5.63651
5.63662
5.63673
5.63686
5.63699
5.63713
5.63728
5.63743
5.63759
5.63772
5.63785
5.63797
5.6381
5.6382
5.6383
5.63838
5.63843
5.63837
5.63812
5.63804
5.63804
5.63807
5.6381
5.63815
5.63816
5.63817
5.63814
5.63811
5.63811
5.63811
5.39634
5.39634
5.39633
5.39632
5.3963
5.39629
5.39628
5.39623
5.39617
5.39611
5.39603
5.39588
5.39579
5.39579
5.39585
5.39601
5.39568
5.39548
5.39536
5.39529
5.39537
5.39538
5.3953
5.39521
5.39514
5.3951
5.39507
5.39507
5.39508
5.39502
5.3952
5.39535
5.39549
5.39565
5.39582
5.39601
5.3962
5.39638
5.39657
5.39676
5.39692
5.39708
5.39724
5.39737
5.39749
5.39758
5.39758
5.39747
5.39734
5.3973
5.39732
5.39736
5.3974
5.39745
5.39747
5.39748
5.39746
5.39743
5.39744
5.39743
5.17486
5.17486
5.17485
5.17483
5.1748
5.17479
5.17476
5.17471
5.17463
5.17455
5.17445
5.17431
5.17417
5.1741
5.17411
5.17421
5.17393
5.17372
5.17355
5.17343
5.17336
5.17345
5.17338
5.17327
5.17317
5.17311
5.17308
5.17308
5.17308
5.17304
5.17325
5.17342
5.1736
5.17379
5.17401
5.17423
5.17447
5.17471
5.17493
5.17516
5.17538
5.17557
5.17576
5.17593
5.17607
5.17615
5.17606
5.17605
5.176
5.17598
5.17601
5.17607
5.17611
5.17617
5.17619
5.17621
5.17619
5.17616
5.17618
5.17617
4.97057
4.97056
4.97054
4.97052
4.97049
4.97046
4.97042
4.97036
4.97027
4.97017
4.97006
4.9699
4.96974
4.96958
4.96947
4.9694
4.96929
4.96912
4.96891
4.96874
4.96859
4.96868
4.96859
4.96845
4.96833
4.96825
4.9682
4.9682
4.96821
4.96818
4.96841
4.96861
4.96882
4.96906
4.96932
4.9696
4.96989
4.97018
4.97047
4.97074
4.971
4.97125
4.97147
4.97167
4.97182
4.97189
4.97184
4.97188
4.97185
4.97185
4.9719
4.97196
4.97202
4.97207
4.97211
4.97213
4.97212
4.9721
4.97211
4.9721
4.78155
4.78155
4.78153
4.7815
4.78145
4.78142
4.78136
4.78129
4.78119
4.78107
4.78093
4.78076
4.78058
4.7804
4.7802
4.78008
4.77997
4.77977
4.77953
4.77932
4.77912
4.77917
4.77904
4.77886
4.77871
4.77861
4.77854
4.77853
4.77854
4.77853
4.77878
4.77902
4.77927
4.77956
4.77987
4.78021
4.78056
4.78091
4.78125
4.78159
4.78189
4.78219
4.78245
4.78268
4.78279
4.78284
4.78292
4.78298
4.78298
4.78302
4.78308
4.78315
4.78322
4.78327
4.78332
4.78334
4.78333
4.78332
4.78333
4.78332
4.60619
4.60619
4.60616
4.60612
4.60607
4.60603
4.60597
4.60587
4.60576
4.60562
4.60547
4.60527
4.60507
4.60485
4.60463
4.60446
4.60432
4.60407
4.60378
4.60352
4.60327
4.60326
4.60309
4.60287
4.60268
4.60255
4.60247
4.60244
4.60246
4.60246
4.60274
4.60301
4.60331
4.60366
4.60403
4.60443
4.60485
4.60527
4.60567
4.60607
4.60643
4.60678
4.60708
4.6073
4.60736
4.60751
4.60764
4.60774
4.60778
4.60783
4.60793
4.608
4.60807
4.60814
4.60818
4.60821
4.60821
4.6082
4.60821
4.6082
4.44307
4.44306
4.44303
4.443
4.44294
4.44289
4.44282
4.44271
4.44258
4.44243
4.44225
4.44203
4.4418
4.44155
4.4413
4.44109
4.44089
4.4406
4.44026
4.43993
4.43964
4.43951
4.43933
4.43907
4.43884
4.43867
4.43856
4.43852
4.43854
4.43856
4.43886
4.43918
4.43953
4.43994
4.44039
4.44087
4.44135
4.44185
4.44232
4.44278
4.44321
4.44361
4.44395
4.44417
4.44428
4.44446
4.44463
4.44472
4.4448
4.4449
4.44501
4.4451
4.44518
4.44526
4.4453
4.44533
4.44533
4.44533
4.44534
4.44533
4.29098
4.29097
4.29094
4.29089
4.29084
4.29077
4.29069
4.29057
4.29043
4.29026
4.29006
4.28981
4.28956
4.28927
4.28898
4.28873
4.28849
4.28814
4.28774
4.28733
4.28696
4.28665
4.28651
4.28624
4.28596
4.28574
4.2856
4.28555
4.28557
4.2856
4.28593
4.2863
4.28672
4.28719
4.28772
4.28828
4.28886
4.28943
4.28998
4.29051
4.29101
4.29145
4.29177
4.29199
4.29223
4.29246
4.29266
4.29277
4.29288
4.29302
4.29313
4.29324
4.29332
4.2934
4.29345
4.29348
4.29349
4.29348
4.2935
4.29349
4.14885
4.14883
4.1488
4.14875
4.14869
4.14862
4.14852
4.14839
4.14824
4.14805
4.14783
4.14756
4.14728
4.14696
4.14663
4.14632
4.14604
4.14564
4.14517
4.14469
4.14423
4.1438
4.14362
4.14331
4.14297
4.1427
4.14253
4.14245
4.14246
4.14251
4.14288
4.1433
4.14379
4.14435
4.14497
4.14562
4.14629
4.14695
4.1476
4.1482
4.14876
4.14922
4.1495
4.14983
4.15015
4.15044
4.15066
4.1508
4.15094
4.15109
4.15122
4.15133
4.15142
4.1515
4.15156
4.15159
4.1516
4.1516
4.15161
4.15161
4.01574
4.01573
4.01569
4.01564
4.01557
4.01549
4.0154
4.01525
4.01508
4.01488
4.01464
4.01435
4.01403
4.01368
4.01331
4.01295
4.0126
4.01214
4.01162
4.01106
4.01052
4.01002
4.0097
4.00934
4.00894
4.00861
4.00838
4.00828
4.00829
4.00836
4.00876
4.00924
4.00981
4.01047
4.01119
4.01196
4.01273
4.0135
4.01423
4.01491
4.01553
4.01603
4.01636
4.01676
4.01713
4.01744
4.01766
4.01784
4.01802
4.0182
4.01834
4.01845
4.01855
4.01864
4.01869
4.01873
4.01873
4.01874
4.01875
4.01875
3.89084
3.89083
3.89079
3.89074
3.89066
3.89058
3.89047
3.89032
3.89014
3.88992
3.88966
3.88935
3.88901
3.88863
3.88821
3.88779
3.88737
3.88686
3.88627
3.88564
3.88498
3.88437
3.88383
3.88348
3.88304
3.88264
3.88236
3.88222
3.88222
3.88231
3.88276
3.88331
3.88397
3.88474
3.88558
3.88647
3.88736
3.88823
3.88904
3.88977
3.89042
3.89096
3.89145
3.89192
3.89234
3.89267
3.8929
3.89312
3.89333
3.89352
3.89367
3.89378
3.89389
3.89397
3.89403
3.89406
3.89408
3.89408
3.89409
3.89409
3.77342
3.77341
3.77337
3.77331
3.77324
3.77315
3.77303
3.77288
3.77269
3.77245
3.77218
3.77185
3.77148
3.77106
3.77059
3.77009
3.76959
3.76905
3.7684
3.76768
3.76694
3.7662
3.76552
3.76509
3.76456
3.76407
3.76373
3.76354
3.76352
3.76363
3.76413
3.76476
3.76554
3.76643
3.76741
3.76844
3.76946
3.77043
3.77133
3.77215
3.77282
3.77345
3.77405
3.77459
3.77503
3.77536
3.77563
3.77589
3.77613
3.77632
3.77648
3.7766
3.7767
3.77678
3.77684
3.77688
3.77689
3.7769
3.77691
3.7769
3.66284
3.66282
3.66279
3.66273
3.66265
3.66256
3.66244
3.66228
3.66208
3.66184
3.66155
3.66121
3.66082
3.66036
3.65985
3.65929
3.65872
3.65812
3.65739
3.65658
3.65573
3.65488
3.65406
3.65347
3.65285
3.65227
3.65183
3.65159
3.65155
3.65168
3.65223
3.65297
3.65387
3.65492
3.65606
3.65725
3.65839
3.65947
3.66049
3.66141
3.66216
3.66288
3.66355
3.66413
3.66459
3.66493
3.66524
3.66553
3.66577
3.66597
3.66613
3.66626
3.66636
3.66644
3.66649
3.66653
3.66654
3.66655
3.66656
3.66655
3.55853
3.55851
3.55848
3.55842
3.55834
3.55825
3.55813
3.55796
3.55776
3.55751
3.55721
3.55685
3.55644
3.55596
3.55542
3.55481
3.55417
3.55348
3.55268
3.55177
3.5508
3.54981
3.54886
3.54803
3.54742
3.54671
3.54618
3.54586
3.54579
3.54592
3.54654
3.5474
3.54846
3.54968
3.55101
3.55239
3.5536
3.55481
3.55588
3.5569
3.55781
3.55863
3.55935
3.55993
3.56039
3.56079
3.56114
3.56144
3.5617
3.56189
3.56206
3.56218
3.56227
3.56235
3.5624
3.56244
3.56245
3.56245
3.56246
3.56245
3.45998
3.45996
3.45992
3.45987
3.45979
3.45969
3.45957
3.45941
3.45921
3.45896
3.45865
3.45828
3.45785
3.45735
3.45678
3.45611
3.45538
3.4546
3.45375
3.45276
3.45167
3.45054
3.44943
3.44874
3.496
3.49528
3.49467
3.4943
3.4942
3.49433
3.49498
3.4959
3.49704
3.49837
3.49982
3.5013
3.4553
3.45596
3.45716
3.45829
3.4593
3.46019
3.46094
3.46151
3.462
3.46244
3.46282
3.46313
3.46338
3.46358
3.46374
3.46386
3.46395
3.46402
3.46407
3.4641
3.46411
3.46411
3.46411
3.4641
3.36672
3.3667
3.36667
3.36662
3.36654
3.36645
3.36633
3.36617
3.36597
3.36572
3.36541
3.36504
3.3646
3.36409
3.36348
3.36278
3.36198
3.3611
3.36016
3.35912
3.35792
3.35665
3.35574
3.40018
3.39752
3.39679
3.39602
3.39552
3.39534
3.39546
3.39616
3.39721
3.39853
3.40009
3.4018
3.40345
3.40708
3.36319
3.36392
3.36512
3.36619
3.36712
3.36787
3.36847
3.36898
3.36944
3.36982
3.37013
3.37038
3.37057
3.37072
3.37084
3.37092
3.37098
3.37102
3.37105
3.37105
3.37105
3.37105
3.37104
3.27836
3.27834
3.27831
3.27826
3.27819
3.2781
3.27799
3.27783
3.27764
3.27739
3.27709
3.27672
3.27628
3.27576
3.27514
3.27441
3.27357
3.27262
3.27159
3.27046
3.26917
3.26778
3.26698
3.30718
3.30464
3.32622
3.32542
3.32482
3.32456
3.32462
3.32534
3.32644
3.3279
3.32964
3.33157
3.31142
3.31464
3.27539
3.2757
3.27694
3.27805
3.27897
3.27972
3.28034
3.28089
3.28136
3.28174
3.28204
3.28228
3.28246
3.2826
3.2827
3.28277
3.28283
3.28287
3.28288
3.28288
3.28287
3.28288
3.28286
3.19452
3.1945
3.19447
3.19442
3.19436
3.19428
3.19418
3.19403
3.19384
3.19361
3.19332
3.19295
3.19252
3.192
3.19138
3.19064
3.18978
3.18878
3.18766
3.18643
3.18507
3.18362
3.18296
3.21922
3.21697
3.23607
3.23556
3.23484
3.23441
3.23437
3.23494
3.23603
3.23758
3.23954
3.24167
3.22488
3.22711
3.19229
3.19219
3.1934
3.19449
3.1954
3.19616
3.19681
3.19737
3.19783
3.19819
3.19848
3.19871
3.19887
3.199
3.19909
3.19915
3.19919
3.19921
3.19923
3.19922
3.19921
3.1992
3.19919
3.11486
3.11484
3.11482
3.11478
3.11472
3.11465
3.11456
3.11443
3.11425
3.11403
3.11376
3.11341
3.113
3.11249
3.11188
3.11115
3.11028
3.10927
3.1081
3.10679
3.10537
3.1039
3.10346
3.13627
3.1342
3.1509
3.15104
3.15026
3.14978
3.14966
3.15011
3.15105
3.15252
3.15446
3.15677
3.14315
3.14432
3.11357
3.11304
3.11415
3.1152
3.1161
3.11688
3.11754
3.11808
3.11851
3.11886
3.11913
3.11933
3.11948
3.11958
3.11966
3.1197
3.11973
3.11974
3.11974
3.11973
3.11971
3.11971
3.11969
3.03909
3.03907
3.03905
3.03902
3.03897
3.03892
3.03884
3.03872
3.03856
3.03837
3.03812
3.0378
3.03741
3.03693
3.03634
3.03564
3.03479
3.0338
3.03263
3.0313
3.02987
3.02842
3.02834
3.05819
3.05636
3.07128
3.07233
3.07207
3.07215
3.07245
3.07273
3.0729
3.07344
3.07465
3.07665
3.06635
3.06607
3.03889
3.03794
3.03888
3.03992
3.04081
3.04158
3.0422
3.04271
3.04311
3.04343
3.04367
3.04385
3.04397
3.04406
3.04411
3.04413
3.04415
3.04415
3.04413
3.04411
3.04409
3.04408
3.04406
2.96693
2.96691
2.96689
2.96687
2.96684
2.96679
2.96673
2.96663
2.9665
2.96633
2.96611
2.96583
2.96547
2.96504
2.9645
2.96384
2.96305
2.9621
2.961
2.95975
2.9584
2.95708
2.95759
2.98507
2.98367
2.99773
3.00141
3.00341
3.00713
3.0106
3.01068
3.00706
3.00308
3.0013
3.00149
2.99416
2.99215
2.96795
2.96669
2.96745
2.9684
2.96925
2.96995
2.97053
2.97099
2.97135
2.97163
2.97183
2.97198
2.97208
2.97213
2.97216
2.97217
2.97217
2.97215
2.97213
2.97209
2.97206
2.97205
2.97202
2.89813
2.89811
2.8981
2.89809
2.89806
2.89804
2.89799
2.89792
2.89782
2.89768
2.89749
2.89725
2.89695
2.89656
2.89609
2.8955
2.89479
2.89395
2.89298
2.89188
2.89078
2.88982
2.89134
2.91701
2.91671
2.93228
2.9417
2.95371
2.97687
3.00207
3.00242
2.97648
2.95118
2.93757
2.93243
2.92622
2.92241
2.90046
2.89903
2.89956
2.90037
2.90112
2.90175
2.90226
2.90266
2.90297
2.90321
2.90337
2.90348
2.90354
2.90357
2.90357
2.90356
2.90354
2.9035
2.90346
2.90342
2.90338
2.90336
2.90334
2.83245
2.83244
2.83244
2.83243
2.83242
2.83241
2.83239
2.83234
2.83227
2.83217
2.83203
2.83184
2.83159
2.83128
2.83089
2.8304
2.82981
2.82911
2.82833
2.82751
2.82679
2.82656
2.82983
2.85437
2.85646
2.87724
2.9
2.94981
3.09407
3.33562
3.3349
3.10711
2.95204
2.89205
2.87189
2.86181
2.85668
2.83624
2.83464
2.83492
2.83556
2.83619
2.83672
2.83715
2.83749
2.83775
2.83793
2.83805
2.83811
2.83814
2.83814
2.83811
2.83807
2.83803
2.83797
2.83792
2.83787
2.83782
2.83779
2.83776
2.76971
2.76969
2.7697
2.7697
2.76971
2.76972
2.76972
2.76969
2.76966
2.7696
2.76951
2.76937
2.7692
2.76897
2.76867
2.76831
2.76787
2.76737
2.76685
2.7664
2.76625
2.76721
2.77303
2.7974
2.80454
2.83465
2.88455
3.06501
3.95208
8.4129
7.7369
4.33985
3.13939
2.8824
2.82256
2.80087
2.79479
2.77486
2.7732
2.77325
2.7737
2.7742
2.77463
2.77499
2.77525
2.77544
2.77557
2.77564
2.77566
2.77565
2.77561
2.77556
2.77549
2.77542
2.77536
2.77529
2.77522
2.77517
2.77514
2.7751
2.70969
2.70968
2.70969
2.70971
2.70973
2.70975
2.70978
2.70979
2.70979
2.70977
2.70973
2.70966
2.70956
2.70942
2.70924
2.70902
2.70876
2.7085
2.70831
2.70834
2.70892
2.71156
2.72069
2.74585
2.7616
2.80473
2.89761
3.4423
12.3351
12.5391
3.8089
2.92477
2.78495
2.7433
2.73589
2.71604
2.71437
2.71427
2.71454
2.71493
2.71527
2.71554
2.71573
2.71585
2.71592
2.71594
2.71592
2.71587
2.7158
2.71571
2.71562
2.71553
2.71545
2.71537
2.71529
2.71523
2.71519
2.71516
2.65223
2.65222
2.65224
2.65227
2.6523
2.65235
2.65239
2.65244
2.65247
2.6525
2.65252
2.65251
2.65249
2.65246
2.6524
2.65233
2.65228
2.65229
2.65248
2.65306
2.65451
2.65923
2.67218
2.69917
2.72748
2.78583
2.94975
4.32241
8.37543
202.795
90.2271
4.54045
2.98836
2.75102
2.68896
2.67918
2.65964
2.65803
2.65783
2.65798
2.65827
2.65851
2.65869
2.65881
2.65887
2.65887
2.65883
2.65876
2.65867
2.65856
2.65844
2.65832
2.6582
2.6581
2.658
2.65791
2.65784
2.6578
2.65776
2.59716
2.59715
2.59718
2.59722
2.59727
2.59734
2.59741
2.59748
2.59756
2.59763
2.5977
2.59777
2.59783
2.59789
2.59796
2.59806
2.59822
2.59852
2.59911
2.60029
2.60265
2.60966
2.62654
2.65661
2.70011
2.7775
3.08654
4.58919
16.6554
48.8908
78.3603
23.5887
4.90005
3.03615
2.71137
2.63626
2.62411
2.60543
2.60395
2.60374
2.6038
2.604
2.60416
2.60426
2.6043
2.60428
2.60422
2.60413
2.604
2.60386
2.60371
2.60356
2.6034
2.60327
2.60314
2.60302
2.60292
2.60284
2.60279
2.60275
2.54434
2.54434
2.54437
2.54442
2.54449
2.54457
2.54467
2.54477
2.54488
2.545
2.54513
2.54526
2.5454
2.54556
2.54576
2.54602
2.54639
2.54696
2.54794
2.54969
2.55296
2.56212
2.58244
2.6167
2.67442
2.77434
3.25314
4.04815
26.5878
23.0866
24.2104
13.0062
5.25384
3.10566
2.67456
2.58318
2.57113
2.55336
2.55204
2.55185
2.55186
2.55199
2.55207
2.55209
2.55204
2.55195
2.55182
2.55167
2.55149
2.5513
2.55111
2.55092
2.55073
2.55057
2.55041
2.55028
2.55017
2.55008
2.55002
2.54997
2.49364
2.49363
2.49368
2.49374
2.49381
2.49392
2.49404
2.49417
2.49431
2.49447
2.49465
2.49484
2.49506
2.49532
2.49563
2.49603
2.49657
2.49737
2.49871
2.50101
2.50514
2.51599
2.53888
2.57773
2.64553
2.76515
3.36525
3.88306
14.5555
22.2567
24.986
19.4965
8.11121
3.39679
2.67857
2.53528
2.52164
2.50361
2.50225
2.5021
2.50205
2.50211
2.5021
2.50203
2.5019
2.50173
2.50154
2.50131
2.50108
2.50084
2.50061
2.50038
2.50016
2.49997
2.49979
2.49964
2.49951
2.49941
2.49935
2.4993
2.44492
2.44492
2.44497
2.44503
2.44513
2.44524
2.44538
2.44554
2.44572
2.44592
2.44614
2.44639
2.44668
2.44701
2.4474
2.44789
2.44858
2.44964
2.45131
2.45407
2.45894
2.47087
2.49549
2.53818
2.6122
2.74635
3.42243
3.96171
4.89265
11.511
13.011
14.0497
15.7355
6.2508
2.79286
2.51554
2.47698
2.45672
2.45466
2.45444
2.45427
2.45422
2.45412
2.45396
2.45375
2.4535
2.45323
2.45294
2.45265
2.45236
2.45208
2.45181
2.45156
2.45134
2.45115
2.45098
2.45083
2.45072
2.45065
2.45059
2.39807
2.39807
2.39812
2.3982
2.39831
2.39844
2.3986
2.39878
2.39898
2.39922
2.39948
2.39977
2.4001
2.40046
2.40093
2.40155
2.40243
2.40369
2.40561
2.4087
2.41412
2.42655
2.45221
2.49747
2.57672
2.73277
3.42523
4.06709
2.77914
4.20205
4.83927
4.94581
9.68881
10.9755
3.27274
2.53913
2.43885
2.41302
2.40926
2.40875
2.40838
2.40819
2.40798
2.40775
2.40745
2.40712
2.40678
2.40642
2.40607
2.40573
2.40541
2.40511
2.40483
2.40458
2.40436
2.40417
2.40401
2.40389
2.40382
2.40375
2.35298
2.35299
2.35304
2.35313
2.35324
2.35339
2.35356
2.35376
2.35399
2.35425
2.35454
2.35486
2.35522
2.35564
2.35621
2.35694
2.35793
2.35934
2.36143
2.36471
2.37051
2.38298
2.40926
2.45619
2.54027
2.74371
3.37713
4.16615
2.78837
2.20018
1.79593
1.78608
5.62273
11.6455
4.37602
2.58841
2.40844
2.37278
2.3661
2.36497
2.36438
2.36403
2.36365
2.36328
2.3629
2.36249
2.36207
2.36166
2.36125
2.36086
2.36049
2.36015
2.35984
2.35956
2.35932
2.35912
2.35894
2.35881
2.35873
2.35866
2.30956
2.30957
2.30963
2.30972
2.30984
2.31
2.31019
2.3104
2.31065
2.31092
2.31121
2.31154
2.31196
2.31247
2.3131
2.3139
2.31497
2.31646
2.31867
2.32202
2.32798
2.34026
2.3671
2.41485
2.50144
2.77449
3.31367
4.35173
3.58693
2.27757
1.31624
1.44655
4.1747
10.8165
5.40494
2.63092
2.3831
2.33526
2.32502
2.32306
2.32211
2.32154
2.32102
2.32048
2.31996
2.31947
2.319
2.31853
2.31807
2.31763
2.31722
2.31684
2.3165
2.3162
2.31593
2.31571
2.31553
2.31539
2.3153
2.31523
2.26772
2.26772
2.26779
2.26788
2.26801
2.26818
2.26838
2.2686
2.26885
2.26912
2.26943
2.26981
2.27027
2.27082
2.27149
2.27233
2.27345
2.27499
2.27724
2.28056
2.28651
2.29853
2.32583
2.37396
2.45956
2.79183
3.32908
5.2313
5.06023
3.4883
2.43372
1.98593
3.61818
10.1881
5.94633
2.64424
2.35771
2.29955
2.2856
2.28277
2.28148
2.2806
2.27992
2.27926
2.27862
2.27801
2.27746
2.27694
2.27644
2.27595
2.2755
2.27509
2.27472
2.27439
2.27411
2.27387
2.27367
2.27352
2.27343
2.27335
2.22736
2.22736
2.22743
2.22753
2.22767
2.22784
2.22804
2.22826
2.22851
2.2288
2.22914
2.22955
2.23003
2.2306
2.23129
2.23216
2.2333
2.23485
2.23708
2.24033
2.24619
2.25789
2.28549
2.33348
2.41513
2.7657
3.77891
6.95445
5.64988
4.08833
2.47856
1.65396
4.05989
9.79414
6.14816
2.62626
2.32882
2.26487
2.24751
2.24388
2.24233
2.24117
2.24025
2.23946
2.23872
2.23802
2.23739
2.2368
2.23626
2.23574
2.23525
2.2348
2.2344
2.23405
2.23375
2.2335
2.23329
2.23313
2.23303
2.23295
2.18841
2.18842
2.18848
2.18859
2.18872
2.18889
2.18908
2.1893
2.18957
2.18988
2.19025
2.19067
2.19116
2.19174
2.19244
2.19332
2.19446
2.19599
2.19818
2.20135
2.20703
2.21838
2.24611
2.29317
2.36934
2.70981
4.89059
7.23594
3.64656
2.65751
1.69467
1.91869
4.80231
9.61887
6.11792
2.58899
2.29778
2.23067
2.21057
2.20626
2.20447
2.2031
2.20199
2.20102
2.20015
2.19936
2.19868
2.19804
2.19744
2.1969
2.19638
2.1959
2.19548
2.19511
2.19479
2.19452
2.1943
2.19413
2.19403
2.19394
2.1508
2.1508
2.15087
2.15098
2.15111
2.15127
2.15146
2.1517
2.15198
2.1523
2.15267
2.15309
2.15359
2.15417
2.15487
2.15574
2.15686
2.15835
2.16046
2.16358
2.16904
2.18004
2.20773
2.25313
2.32381
2.67275
5.88898
5.87697
2.25629
1.83386
1.56472
2.40249
5.57261
9.53962
5.97046
2.54386
2.26554
2.1966
2.1746
2.16982
2.16782
2.16625
2.165
2.1639
2.16293
2.16204
2.16126
2.16057
2.15993
2.15935
2.15881
2.15832
2.15787
2.15748
2.15714
2.15686
2.15663
2.15646
2.15635
2.15626
2.11446
2.11446
2.11453
2.11463
2.11476
2.11492
2.11512
2.11536
2.11564
2.11597
2.11634
2.11676
2.11725
2.11783
2.11852
2.11937
2.12045
2.12188
2.12394
2.12699
2.1322
2.1429
2.1704
2.21371
2.27981
2.67646
6.39704
4.73653
1.63611
1.53606
1.69549
2.96807
6.29486
9.34483
5.74233
2.4971
2.23212
2.16255
2.13951
2.13446
2.13227
2.13056
2.12918
2.12797
2.12692
2.12596
2.1251
2.12433
2.12366
2.12304
2.12248
2.12197
2.12151
2.1211
2.12075
2.12046
2.12022
2.12004
2.11992
2.11983
2.07932
2.07932
2.07939
2.07948
2.07961
2.07978
2.07998
2.08023
2.08051
2.08083
2.0812
2.08161
2.0821
2.08266
2.08334
2.08416
2.08517
2.08658
2.08859
2.09154
2.0965
2.10693
2.13415
2.17523
2.2379
2.70866
6.55107
4.04234
1.37505
1.47318
1.93433
3.50847
6.76815
8.90648
5.42637
2.45063
2.19791
2.12857
2.10526
2.10011
2.09775
2.09594
2.09445
2.09316
2.09203
2.09103
2.09011
2.08928
2.08854
2.08791
2.08732
2.08679
2.08632
2.0859
2.08554
2.08524
2.08499
2.08481
2.08469
2.08459
2.04533
2.04533
2.04539
2.04548
2.04561
2.04578
2.04599
2.04623
2.04651
2.04683
2.04719
2.04759
2.04807
2.04862
2.04927
2.05005
2.05103
2.0524
2.05432
2.05719
2.06191
2.0721
2.09895
2.13792
2.19822
2.7504
6.53372
3.57874
1.3128
1.49299
2.169
3.87791
6.84842
8.25983
5.04386
2.40473
2.16318
2.09484
2.07184
2.0667
2.06421
2.06235
2.06077
2.05942
2.05823
2.05717
2.05622
2.05535
2.05457
2.05387
2.05327
2.05273
2.05225
2.05183
2.05146
2.05115
2.05089
2.05071
2.05058
2.05049
2.01243
2.01243
2.01249
2.01258
2.01271
2.01288
2.01309
2.01332
2.01359
2.01391
2.01426
2.01465
2.01511
2.01564
2.01626
2.017
2.01795
2.01929
2.02112
2.0239
2.02839
2.03836
2.06475
2.1018
2.1611
2.78293
6.47512
3.25945
1.36697
1.53491
2.31633
4.03491
6.62935
7.52888
4.64704
2.35938
2.12828
2.06156
2.03923
2.03419
2.03161
2.02972
2.02807
2.02667
2.02544
2.02434
2.02335
2.02246
2.02165
2.02092
2.02028
2.01973
2.01924
2.01881
2.01844
2.01813
2.01787
2.01768
2.01755
2.01745
1.98057
1.98057
1.98063
1.98072
1.98085
1.98102
1.98122
1.98145
1.98172
1.98202
1.98236
1.98275
1.98319
1.98369
1.98428
1.98498
1.98591
1.98719
1.98893
1.99163
1.99591
2.00568
2.03148
2.06691
2.12729
2.80615
6.44901
3.0789
1.4937
1.56701
2.36926
4.04949
6.29897
6.83369
4.2818
2.31466
2.09347
2.0289
2.00744
2.00254
1.9999
1.998
1.9963
1.99488
1.99361
1.99249
1.99147
1.99056
1.98974
1.98899
1.98832
1.98774
1.98725
1.98681
1.98644
1.98612
1.98586
1.98567
1.98554
1.98544
1.94971
1.9497
1.94976
1.94986
1.94998
1.95015
1.95034
1.95057
1.95083
1.95112
1.95145
1.95182
1.95224
1.95272
1.95327
1.95396
1.95485
1.95607
1.95773
1.96034
1.96442
1.974
1.9991
2.03325
2.10059
2.82423
6.44545
3.03514
1.63932
1.57353
2.3633
4.00959
5.97287
6.23522
3.96946
2.27074
2.05901
1.99699
1.97646
1.97172
1.96905
1.96717
1.96544
1.964
1.96271
1.96157
1.96053
1.9596
1.95877
1.95801
1.95734
1.95673
1.95621
1.95578
1.95541
1.95509
1.95483
1.95463
1.9545
1.9544
1.91979
1.91978
1.91984
1.91994
1.92006
1.92022
1.92041
1.92063
1.92088
1.92117
1.92148
1.92184
1.92224
1.92268
1.92321
1.92388
1.92473
1.9259
1.92749
1.93
1.93393
1.94333
1.96759
2.00087
2.08586
2.85135
6.39788
3.10027
1.76304
1.5815
2.34342
3.96881
5.68744
5.73948
3.70966
2.2279
2.02513
1.96589
1.94627
1.9417
1.93902
1.93717
1.93542
1.93399
1.93268
1.93153
1.93049
1.92955
1.9287
1.92794
1.92726
1.92665
1.92612
1.92566
1.92529
1.92498
1.92472
1.92453
1.9244
1.92429
1.89078
1.89077
1.89083
1.89092
1.89104
1.8912
1.89138
1.8916
1.89184
1.89212
1.89242
1.89276
1.89314
1.89356
1.89407
1.89471
1.89552
1.89664
1.89816
1.90059
1.90439
1.91365
1.937
1.96971
2.08262
2.89934
6.25091
3.2306
1.86996
1.62276
2.35019
3.94892
5.44268
5.32781
3.49376
2.18632
1.99205
1.93563
1.91687
1.91246
1.9098
1.90799
1.90623
1.90481
1.9035
1.90234
1.9013
1.90035
1.8995
1.89874
1.89805
1.89744
1.89691
1.89645
1.89606
1.89575
1.8955
1.89531
1.89518
1.89507
1.86264
1.86263
1.86268
1.86277
1.86289
1.86304
1.86322
1.86343
1.86367
1.86393
1.86423
1.86455
1.86489
1.86531
1.86581
1.86642
1.86718
1.86826
1.86971
1.87205
1.87578
1.88489
1.90742
1.93989
2.08951
2.97398
6.00912
3.39073
1.98549
1.71077
2.4057
3.95454
5.22864
4.97989
3.31168
2.14616
1.95996
1.90623
1.88822
1.88398
1.88136
1.87959
1.87784
1.87643
1.87512
1.87397
1.87292
1.87198
1.87113
1.87036
1.86968
1.86907
1.86854
1.86808
1.86768
1.86736
1.86711
1.86693
1.8668
1.8667
1.83532
1.83531
1.83537
1.83545
1.83557
1.83572
1.83589
1.83609
1.83632
1.83658
1.83686
1.83716
1.83749
1.8379
1.83837
1.83896
1.83969
1.84071
1.84212
1.84438
1.84807
1.85704
1.87892
1.91165
2.10417
3.4807
5.3613
3.28462
2.06952
1.77649
2.54108
4.0113
4.94043
4.47064
2.95473
2.10788
1.92898
1.87767
1.86033
1.85624
1.85366
1.85193
1.8502
1.84882
1.84751
1.84637
1.84533
1.84439
1.84355
1.84279
1.8421
1.8415
1.84097
1.84051
1.84012
1.83979
1.83954
1.83936
1.83924
1.83913
1.8088
1.80879
1.80884
1.80893
1.80904
1.80918
1.80935
1.80955
1.80977
1.81002
1.81029
1.81057
1.8109
1.81129
1.81174
1.8123
1.813
1.81399
1.81535
1.81753
1.82121
1.83007
1.85174
1.8954
2.12216
3.56144
4.95467
2.99507
1.90167
1.66321
2.3838
3.75106
4.6253
4.21847
2.86942
2.0716
1.87417
1.84989
1.83317
1.82921
1.82669
1.825
1.82329
1.82194
1.82064
1.81952
1.81849
1.81756
1.81672
1.81597
1.81529
1.81469
1.81416
1.81371
1.81332
1.813
1.81274
1.81256
1.81245
1.81234
1.78304
1.78302
1.78308
1.78316
1.78327
1.78341
1.78358
1.78377
1.78398
1.78422
1.78448
1.78475
1.78507
1.78545
1.78588
1.78642
1.7871
1.78804
1.78938
1.79149
1.79517
1.80393
1.82611
1.88827
2.44572
4.11237
3.78091
2.06916
1.4987
1.55951
2.39572
3.5855
4.17538
3.63368
2.52964
1.96634
1.84707
1.82289
1.80671
1.80288
1.80042
1.79877
1.79709
1.79576
1.79448
1.79338
1.79236
1.79145
1.79062
1.78988
1.78921
1.78862
1.7881
1.78765
1.78726
1.78695
1.78669
1.78651
1.78639
1.78629
1.758
1.75799
1.75804
1.75812
1.75823
1.75837
1.75853
1.75871
1.75892
1.75915
1.75939
1.75966
1.75998
1.76034
1.76076
1.76128
1.76194
1.76285
1.76416
1.76622
1.76991
1.77863
1.80201
1.88337
2.46817
3.95147
3.37572
1.78005
1.27895
1.35896
2.13134
3.26718
3.91047
3.48268
2.47979
1.93796
1.8209
1.79669
1.78091
1.77721
1.77481
1.77321
1.77157
1.77027
1.76901
1.76794
1.76693
1.76604
1.76522
1.76449
1.76383
1.76325
1.76274
1.76229
1.76191
1.7616
1.76135
1.76116
1.76105
1.76095
1.73367
1.73365
1.7337
1.73378
1.73389
1.73402
1.73418
1.73436
1.73457
1.73479
1.73502
1.73529
1.7356
1.73595
1.73636
1.73685
1.7375
1.73838
1.73967
1.74168
1.74539
1.75413
1.7795
1.87998
2.48098
3.78106
3.01808
1.54415
1.10114
1.19542
1.91261
2.99422
3.67545
3.34433
2.43124
1.91061
1.79573
1.77124
1.75575
1.75217
1.74985
1.7483
1.7467
1.74543
1.7442
1.74315
1.74217
1.74129
1.74049
1.73978
1.73913
1.73856
1.73805
1.73761
1.73724
1.73693
1.73669
1.73651
1.73639
1.73629
1.71
1.70998
1.71003
1.71011
1.71022
1.71035
1.71051
1.71068
1.71088
1.71109
1.71132
1.71159
1.71189
1.71223
1.71263
1.71311
1.71374
1.7146
1.71588
1.71785
1.72158
1.73042
1.75851
1.87731
2.48414
3.60575
2.70407
1.35048
0.956188
1.06086
1.73017
2.75873
3.46575
3.2174
2.38439
1.88434
1.77147
1.74647
1.73119
1.72775
1.72552
1.72403
1.72246
1.72123
1.72003
1.719
1.71804
1.71719
1.71641
1.7157
1.71507
1.71451
1.71402
1.71359
1.71322
1.71292
1.71268
1.7125
1.71239
1.71228
1.68697
1.68696
1.68701
1.68709
1.68719
1.68732
1.68748
1.68765
1.68784
1.68804
1.68828
1.68854
1.68884
1.68917
1.68956
1.69003
1.69065
1.69149
1.69275
1.69469
1.69845
1.70749
1.73892
1.8746
2.47807
3.42949
2.42959
1.19039
0.837336
0.949209
1.5767
2.55435
3.27794
3.1009
2.33941
1.85898
1.7479
1.72229
1.70723
1.70393
1.70181
1.70035
1.69883
1.69764
1.69647
1.69547
1.69454
1.6937
1.69294
1.69226
1.69164
1.69109
1.69061
1.69019
1.68983
1.68954
1.6893
1.68912
1.68901
1.6889
1.66457
1.66455
1.6646
1.66468
1.66478