/*--------------------------------*- C++ -*----------------------------------*\
  =========                 |
  \\      /  F ield         | OpenFOAM: The Open Source CFD Toolbox
   \\    /   O peration     | Website:  https://openfoam.org
    \\  /    A nd           | Version:  12
     \\/     M anipulation  |
\*---------------------------------------------------------------------------*/
FoamFile
{
    format      ascii;
    class       volScalarField;
    location    "460";
    object      p;
}
// * * * * * * * * * * * * * * * * * * * * * * * * * * * * * * * * * * * * * //

dimensions      [0 2 -2 0 0 0 0];

internalField   nonuniform List<scalar> 
16227
(
0.0927556
0.0927961
0.0928763
0.0929945
0.0931483
0.0933345
0.093549
0.0937868
0.0940421
0.0943079
0.0945768
0.09484
0.0950881
0.0953109
0.0954976
0.0956366
0.0957157
0.0957226
0.0956447
0.0954695
0.0951851
0.09478
0.0942439
0.0935676
0.0927437
0.0917666
0.090633
0.0893416
0.0878941
0.0862944
0.0845491
0.0826673
0.0806604
0.0785417
0.0763265
0.0740312
0.0716735
0.0692716
0.066844
0.0644093
0.0619854
0.0595899
0.057239
0.0549485
0.0527324
0.0506039
0.0485747
0.0466552
0.0448546
0.0431811
0.0416414
0.0402416
0.0389866
0.0378804
0.0369265
0.0361279
0.0354867
0.0350045
0.0346825
0.0345211
0.0927257
0.0927668
0.0928481
0.0929681
0.0931243
0.0933135
0.0935317
0.0937738
0.094034
0.0943054
0.0945805
0.0948507
0.0951063
0.0953372
0.0955325
0.0956803
0.0957686
0.0957847
0.095716
0.0955497
0.0952737
0.0948763
0.0943469
0.0936761
0.0928564
0.0918819
0.090749
0.0894567
0.0880063
0.0864016
0.0846495
0.0827594
0.0807426
0.0786128
0.0763854
0.0740771
0.071706
0.0692904
0.0668493
0.0644012
0.0619646
0.0595568
0.0571946
0.0548935
0.0526679
0.0505308
0.0484938
0.0465676
0.0447611
0.0430824
0.0415384
0.0401348
0.0388766
0.0377679
0.0368121
0.0360119
0.0353696
0.0348866
0.034564
0.0344024
0.0926588
0.0927012
0.0927851
0.0929091
0.0930706
0.0932664
0.0934926
0.0937443
0.0940154
0.0942993
0.0945883
0.0948738
0.0951461
0.0953949
0.095609
0.0957766
0.0958851
0.0959218
0.0958734
0.095727
0.0954696
0.0950892
0.0945748
0.0939165
0.093106
0.0921372
0.0910063
0.0897118
0.0882549
0.0866394
0.0848724
0.0829638
0.0809252
0.0787707
0.0765162
0.0741793
0.0717783
0.0693325
0.0668612
0.0643837
0.0619186
0.059484
0.0570966
0.0547723
0.0525255
0.0503692
0.0483153
0.046374
0.0445545
0.0428645
0.0413108
0.039899
0.038634
0.0375197
0.0365596
0.035756
0.035111
0.0346261
0.0343022
0.0341401
0.0925449
0.0925895
0.0926777
0.0928082
0.0929786
0.0931856
0.0934253
0.0936929
0.0939824
0.0942872
0.0945995
0.0949108
0.0952111
0.09549
0.095736
0.0959369
0.0960798
0.0961513
0.0961375
0.0960248
0.0957991
0.095448
0.0949592
0.094322
0.0935276
0.0925688
0.0914413
0.0901432
0.0886756
0.0870421
0.0852501
0.0833102
0.0812345
0.0790381
0.0767378
0.0743521
0.0719007
0.0694037
0.0668815
0.0643542
0.0618412
0.0593611
0.0569313
0.0545678
0.0522854
0.0500971
0.0480146
0.0460482
0.0442069
0.0424982
0.0409283
0.0395029
0.0382264
0.0371032
0.0361357
0.0353264
0.034677
0.0341889
0.033863
0.0336999
0.0923852
0.0924327
0.092527
0.0926666
0.0928491
0.0930716
0.09333
0.0936196
0.0939347
0.0942686
0.0946133
0.0949604
0.0953
0.095621
0.0959117
0.0961594
0.0963506
0.096471
0.0965063
0.0964411
0.0962604
0.0959508
0.0954986
0.0948917
0.0941201
0.0931758
0.0920534
0.0907505
0.0892676
0.0876087
0.0857813
0.0837969
0.0816687
0.0794127
0.0770474
0.0745927
0.0720698
0.0695005
0.0669065
0.0643091
0.0617289
0.0591854
0.0566964
0.0542785
0.0519467
0.049714
0.0475923
0.0455915
0.0437202
0.0419858
0.0403939
0.03895
0.0376584
0.036523
0.0355458
0.0347288
0.0340735
0.0335812
0.0332526
0.033088
0.0921794
0.0922307
0.0923325
0.0924835
0.0926814
0.0929232
0.0932051
0.0935226
0.0938699
0.0942404
0.0946263
0.0950189
0.0954085
0.0957833
0.0961313
0.0964391
0.0966926
0.0968766
0.0969752
0.0969718
0.09685
0.0965947
0.0961905
0.0956237
0.0948826
0.0939576
0.0928424
0.0915335
0.0900313
0.0883392
0.0864658
0.0844235
0.0822267
0.0798932
0.0774431
0.0748986
0.072283
0.06962
0.0669332
0.0642457
0.0615792
0.0589545
0.0563902
0.0539034
0.0515092
0.0492209
0.04705
0.0450063
0.043098
0.0413318
0.0397129
0.0382463
0.0369367
0.0357866
0.0347976
0.0339713
0.0333092
0.0328117
0.0324798
0.0323138
0.0919223
0.0919781
0.0920888
0.0922534
0.0924695
0.0927345
0.0930446
0.0933954
0.0937815
0.0941964
0.0946322
0.0950799
0.0955303
0.0959713
0.0963897
0.0967718
0.0971023
0.0973655
0.0975434
0.0976176
0.0975702
0.0973839
0.097041
0.0965257
0.095824
0.0949248
0.0938198
0.0925047
0.090979
0.0892462
0.0873156
0.0852008
0.0829181
0.0804872
0.0779309
0.0752741
0.0725426
0.0697629
0.066961
0.0641619
0.0613893
0.0586649
0.0560087
0.0534381
0.0509686
0.0486134
0.0463837
0.044289
0.0423368
0.0405329
0.0388825
0.0373902
0.0360599
0.0348928
0.0338903
0.0330536
0.0323835
0.0318804
0.0315449
0.031377
0.0916078
0.0916687
0.0917898
0.0919699
0.0922072
0.0924989
0.0928418
0.0932315
0.0936628
0.0941296
0.0946242
0.0951374
0.0956597
0.0961796
0.0966825
0.0971541
0.097578
0.0979374
0.0982123
0.0983823
0.0984271
0.0983267
0.0980608
0.0976107
0.0969598
0.0960943
0.095004
0.093683
0.0921299
0.0903482
0.0883479
0.0861445
0.0837561
0.0812057
0.078519
0.0757244
0.0728513
0.0699293
0.0669876
0.0640536
0.0611533
0.0583098
0.0555441
0.0528743
0.0503162
0.0478829
0.045585
0.0434314
0.0414289
0.0395821
0.037896
0.0363755
0.0350221
0.0338362
0.0328189
0.0319708
0.0312922
0.030783
0.0304437
0.0302739
0.0912312
0.0912979
0.0914305
0.0916282
0.0918892
0.0922112
0.0925912
0.093025
0.093508
0.0940341
0.0945963
0.0951855
0.0957913
0.0964031
0.0970054
0.097583
0.0981183
0.0985927
0.0989843
0.0992706
0.0994278
0.0994332
0.0992627
0.0988942
0.0983075
0.0974856
0.0964158
0.09509
0.0935056
0.0916659
0.0895819
0.0872712
0.0847549
0.0820593
0.0792146
0.0762533
0.0732094
0.0701165
0.0670076
0.0639133
0.0608619
0.0578786
0.0549852
0.0522007
0.0495408
0.0470182
0.0446431
0.0424234
0.0403644
0.0384706
0.0367463
0.0351953
0.0338169
0.0326111
0.0315783
0.0307183
0.0300309
0.0295156
0.0291724
0.0290008
0.0907878
0.0908608
0.0910061
0.0912232
0.0915103
0.0918657
0.0922866
0.0927696
0.0933103
0.093903
0.0945414
0.0952168
0.0959185
0.0966358
0.0973533
0.0980539
0.0987202
0.0993306
0.0998612
0.100287
0.10058
0.100714
0.100661
0.100393
0.0998872
0.0991215
0.0980797
0.096751
0.0951315
0.0932236
0.0910398
0.0886004
0.08593
0.0830597
0.0800248
0.0768636
0.0736155
0.0703195
0.0670131
0.0637306
0.0605031
0.057358
0.0543184
0.0514034
0.0486286
0.0460064
0.0435462
0.0412539
0.0391337
0.0371892
0.0354257
0.0338426
0.0324383
0.0312124
0.030164
0.0292924
0.0285966
0.0280754
0.0277285
0.0275552
0.0902716
0.0903513
0.0905103
0.090748
0.0910634
0.0914548
0.0919203
0.092457
0.0930611
0.0937275
0.0944503
0.0952219
0.0960316
0.0968683
0.0977179
0.0985604
0.0993783
0.100148
0.100843
0.101434
0.101891
0.102181
0.10227
0.102128
0.101723
0.101029
0.100025
0.0986974
0.0970386
0.0950514
0.0927494
0.0901563
0.0873011
0.0842211
0.0809585
0.0775586
0.0740681
0.0705322
0.0669942
0.0634928
0.0600624
0.0567324
0.0535272
0.0504662
0.0475643
0.0448331
0.0422801
0.0399101
0.0377259
0.0357299
0.0339259
0.0323103
0.0308805
0.0296351
0.0285721
0.0276898
0.0269864
0.0264601
0.0261101
0.0259352
0.0896753
0.0897622
0.0899354
0.090195
0.0905402
0.0909699
0.0914829
0.0920771
0.0927495
0.0934961
0.0943114
0.095189
0.0961189
0.0970893
0.0980876
0.099093
0.100086
0.10104
0.101928
0.102715
0.103368
0.103846
0.10411
0.104121
0.103843
0.103241
0.102289
0.100967
0.099266
0.0971868
0.094745
0.0919683
0.0888921
0.085561
0.082026
0.078342
0.0745643
0.0707466
0.0669384
0.0631841
0.0595218
0.0559829
0.0525926
0.0493702
0.0463298
0.0434811
0.0408294
0.0383782
0.0361287
0.034082
0.0322381
0.0305909
0.0291373
0.0278742
0.0267986
0.0259074
0.0251979
0.0246676
0.0243152
0.0241393
0.0889916
0.0890858
0.0892737
0.0895558
0.0899317
0.0904014
0.0909641
0.0916188
0.0923637
0.093196
0.0941113
0.095104
0.0961659
0.097285
0.0984492
0.0996391
0.100832
0.102
0.103112
0.104131
0.105017
0.105721
0.106198
0.1064
0.106281
0.105797
0.104914
0.103607
0.101861
0.0996755
0.0970685
0.094073
0.0907318
0.0870995
0.0832388
0.0792165
0.0750993
0.0709508
0.0668291
0.0627843
0.0588587
0.0550857
0.0514908
0.0480927
0.0449037
0.0419309
0.0391769
0.0366431
0.03433
0.0322343
0.0303523
0.0286765
0.0272023
0.0259249
0.0248396
0.0239421
0.0232286
0.0226961
0.0223426
0.0221661
0.0882132
0.0883146
0.0885173
0.0888219
0.089229
0.0897391
0.0903528
0.09107
0.0918905
0.0928128
0.0938342
0.0949506
0.0961556
0.0974382
0.098786
0.100182
0.101601
0.103016
0.10439
0.105682
0.106845
0.107822
0.108559
0.108996
0.109076
0.108744
0.107955
0.106674
0.104881
0.102574
0.0997718
0.0965143
0.0928543
0.0888599
0.0846087
0.0801829
0.0756639
0.0711279
0.066643
0.0622664
0.058044
0.0540112
0.050193
0.0466062
0.0432603
0.040159
0.0373024
0.0346891
0.0323155
0.0301739
0.0282583
0.0265589
0.0250691
0.0237819
0.022691
0.0217909
0.0210765
0.0205441
0.0201909
0.0200148
0.0873327
0.0874412
0.0876581
0.0879849
0.0884226
0.0889729
0.0896374
0.0904178
0.0913153
0.0923305
0.0934627
0.0947097
0.0960676
0.0975276
0.0990777
0.100703
0.102377
0.104072
0.10575
0.107363
0.108855
0.110162
0.111217
0.111945
0.112274
0.112137
0.111474
0.110238
0.108399
0.105952
0.102918
0.0993455
0.0953006
0.0908686
0.0861472
0.0812386
0.0762433
0.0712536
0.066349
0.0615948
0.0570408
0.0527225
0.0486639
0.0448779
0.0413694
0.0381388
0.0351828
0.0324963
0.030068
0.0278871
0.0259453
0.0242295
0.0227309
0.0214402
0.0203494
0.0194513
0.0187399
0.0182106
0.0178598
0.0176848
0.086343
0.0864581
0.0866885
0.0870361
0.087503
0.0880918
0.0888057
0.0896481
0.0906222
0.0917311
0.0929767
0.0943594
0.0958781
0.0975275
0.0992976
0.101175
0.103135
0.105149
0.107176
0.109163
0.111048
0.112754
0.114197
0.115286
0.115931
0.116046
0.115551
0.114384
0.112504
0.109897
0.106587
0.102633
0.09812
0.0931559
0.0878649
0.0823763
0.0768149
0.0712932
0.0659051
0.0607238
0.0558019
0.0511744
0.046861
0.0428692
0.0391974
0.0358413
0.0327949
0.0300434
0.0275696
0.0253602
0.0234024
0.0216802
0.0201818
0.0188956
0.0178119
0.0169217
0.0162181
0.0156954
0.0153494
0.015177
0.0852373
0.0853582
0.0856007
0.085967
0.0864604
0.0870847
0.0878448
0.088746
0.0897942
0.090995
0.0923538
0.0938743
0.0955592
0.0974075
0.0994128
0.101565
0.103842
0.106215
0.108643
0.111068
0.113417
0.115605
0.117524
0.119063
0.120108
0.120548
0.120281
0.119221
0.117307
0.114517
0.110877
0.106459
0.101372
0.0957559
0.0897704
0.0835809
0.0773443
0.0711988
0.0652549
0.0595938
0.054269
0.0493113
0.0447332
0.0405347
0.0367065
0.0332373
0.0301127
0.0273084
0.0248029
0.0225798
0.0206196
0.0189033
0.0174164
0.0161448
0.0150767
0.0142017
0.0135117
0.0129999
0.0126615
0.012493
0.0840093
0.0841351
0.0843874
0.0847695
0.0852854
0.0859405
0.0867415
0.087696
0.0888127
0.0901006
0.0915687
0.0932255
0.0950781
0.0971312
0.0993839
0.101831
0.104455
0.10723
0.110115
0.113049
0.115949
0.118718
0.121223
0.123324
0.124878
0.125742
0.125781
0.124879
0.12295
0.119953
0.115914
0.110926
0.105129
0.0987066
0.0918675
0.084825
0.0777797
0.0709022
0.0643225
0.0581279
0.0523687
0.0470664
0.0422209
0.0378224
0.0338527
0.0302907
0.0271066
0.0242689
0.0217516
0.019533
0.0175875
0.0158926
0.014431
0.013186
0.0121438
0.0112924
0.0106226
0.0101267
0.0097993
0.00963636
0.0826539
0.0827831
0.0830425
0.0834362
0.0839692
0.0846485
0.0854828
0.0864822
0.0876585
0.0890245
0.0905939
0.0923804
0.0943973
0.0966559
0.099163
0.101922
0.104921
0.10814
0.111542
0.115066
0.11862
0.12209
0.125317
0.128122
0.130321
0.131737
0.132191
0.131525
0.129609
0.12638
0.121859
0.116164
0.109479
0.102051
0.0941533
0.0860655
0.078045
0.0703084
0.0630068
0.0562276
0.0500102
0.0443589
0.039256
0.0346762
0.0305927
0.0269637
0.0237462
0.0209019
0.0183993
0.0162084
0.0142984
0.0126438
0.0112238
0.0100194
0.00901486
0.00819687
0.00755485
0.00708055
0.0067678
0.00661226
0.0811668
0.0812977
0.0815608
0.0819608
0.082504
0.083199
0.0840563
0.0850891
0.0863122
0.0877429
0.0894001
0.0913036
0.0934742
0.095932
0.0986932
0.101772
0.105169
0.108872
0.112852
0.117054
0.121381
0.125699
0.129823
0.133511
0.136534
0.13867
0.139691
0.13937
0.137519
0.134031
0.128921
0.122335
0.114527
0.105827
0.0966038
0.0872216
0.0780234
0.0692824
0.0611717
0.0537658
0.04708
0.0410928
0.0357611
0.0310386
0.0268782
0.0232178
0.0200027
0.0171868
0.0147313
0.0125964
0.010747
0.00915462
0.00779527
0.00664752
0.00569399
0.00492012
0.00431447
0.00386792
0.00357397
0.00342787
0.0795459
0.0796763
0.0799388
0.0803388
0.0808836
0.0815834
0.0824509
0.0835019
0.0847549
0.0862316
0.0879567
0.0899571
0.0922622
0.0949027
0.0979071
0.101303
0.10511
0.10933
0.113948
0.118921
0.124155
0.129501
0.134738
0.139541
0.143589
0.146671
0.148471
0.148664
0.146968
0.143206
0.137371
0.129659
0.120416
0.110098
0.0992017
0.0882082
0.0775471
0.0676345
0.0586358
0.0505816
0.0434414
0.0371553
0.0316472
0.0268409
0.0226562
0.0190145
0.0158498
0.013107
0.0107365
0.00869079
0.00693131
0.0054262
0.00414872
0.00307546
0.00218764
0.00146987
0.000909689
0.000497719
0.000226921
9.24746e-05
0.0777909
0.0779183
0.0781754
0.0785678
0.079104
0.0797956
0.0806575
0.0817079
0.082969
0.0844672
0.086233
0.0883014
0.0907111
0.0935056
0.0967284
0.100424
0.104638
0.109392
0.114697
0.120533
0.126825
0.13342
0.140059
0.146304
0.151666
0.15599
0.158856
0.159801
0.158389
0.154327
0.147571
0.138382
0.127252
0.114826
0.101785
0.088746
0.0763275
0.0650872
0.0551573
0.0464771
0.0389417
0.0324312
0.0268286
0.0220141
0.0178765
0.0143198
0.0112655
0.00864882
0.00640764
0.00448957
0.00285304
0.00146322
0.000290966
-0.00068846
-0.00149469
-0.00214378
-0.00264859
-0.00301896
-0.00326194
-0.00338243
0.075904
0.0760257
0.0762716
0.0766479
0.0771639
0.0778324
0.0786699
0.0796973
0.08094
0.0824287
0.0842002
0.0862975
0.0887697
0.0916739
0.0950721
0.0990302
0.103622
0.108904
0.114922
0.121701
0.129206
0.137311
0.145732
0.153874
0.160647
0.166627
0.170982
0.173066
0.172193
0.167867
0.159975
0.148879
0.135298
0.120153
0.104395
0.0888356
0.0739578
0.0612655
0.050426
0.0412137
0.0334054
0.0267957
0.021213
0.016492
0.0124945
0.00910646
0.00623579
0.00380502
0.00174376
-3.43531e-06
-0.00148073
-0.0027252
-0.00376736
-0.00463245
-0.00534042
-0.00590774
-0.00634712
-0.00666848
-0.00687891
-0.00698309
0.0738905
0.0740034
0.074232
0.0745827
0.0750654
0.0756939
0.076486
0.0774644
0.0786573
0.0800995
0.0818332
0.0839093
0.0863874
0.0893391
0.0928464
0.0970004
0.101908
0.107673
0.114395
0.122159
0.131012
0.140929
0.151636
0.162463
0.166769
0.174744
0.181008
0.184986
0.185637
0.182107
0.174029
0.161741
0.146149
0.128484
0.10998
0.0917977
0.0696795
0.0556169
0.0440568
0.0345199
0.0266403
0.0201162
0.0147108
0.0102186
0.00647778
0.00335865
0.000754984
-0.00142274
-0.00324813
-0.00477762
-0.00605726
-0.00712481
-0.00801109
-0.00874079
-0.00933372
-0.00980598
-0.0101698
-0.0104348
-0.0106079
-0.0106934
0.0717586
0.0718595
0.0720643
0.0723794
0.0728149
0.073385
0.0741083
0.0750086
0.0761163
0.0774689
0.0791131
0.0811066
0.0835189
0.0864354
0.0899585
0.0942069
0.0993235
0.105471
0.112821
0.121547
0.131808
0.143793
0.157644
0.165131
0.179462
0.190237
0.199119
0.205436
0.207433
0.203617
0.193307
0.17706
0.156456
0.133492
0.109981
0.0874134
0.0690817
0.047372
0.0355903
0.0261283
0.0184765
0.012279
0.00725388
0.0031592
-0.000185759
-0.00292191
-0.00516935
-0.00702149
-0.008551
-0.00981429
-0.0108569
-0.0117158
-0.0124202
-0.0129938
-0.0134551
-0.0138193
-0.0140977
-0.0142993
-0.0144304
-0.014495
0.0695199
0.0696056
0.0697799
0.070049
0.0704229
0.0709155
0.0715453
0.0723364
0.0733198
0.0745347
0.0760304
0.0778694
0.0801291
0.0829064
0.0863224
0.0905239
0.0956914
0.102046
0.10985
0.11939
0.130967
0.144957
0.162458
0.17347
0.190851
0.202697
0.214519
0.224631
0.229811
0.227401
0.216014
0.196226
0.170486
0.141887
0.11295
0.0799791
0.0591885
0.0362225
0.0247599
0.0158429
0.00877854
0.00320973
-0.00118987
-0.00469081
-0.00748267
-0.0097157
-0.0115128
-0.0129635
-0.0141366
-0.0150855
-0.0158526
-0.0164719
-0.0169697
-0.0173674
-0.0176814
-0.0179255
-0.0181093
-0.0182408
-0.0183256
-0.0183672
0.0671896
0.0672569
0.067394
0.067607
0.0679049
0.0683007
0.068812
0.0694618
0.0702801
0.0713058
0.0725885
0.0741924
0.0761992
0.0787134
0.08187
0.0858391
0.0908373
0.0971379
0.105091
0.11512
0.127685
0.143253
0.163716
0.178785
0.201848
0.221849
0.239544
0.255612
0.265082
0.263225
0.247464
0.218803
0.182102
0.143074
0.105969
0.0678172
0.0467905
0.0219947
0.0114656
0.00354935
-0.00251611
-0.00710193
-0.0106008
-0.0132939
-0.0153695
-0.0169778
-0.0182302
-0.0192053
-0.0199643
-0.0205535
-0.0210095
-0.0213608
-0.0216295
-0.0218333
-0.0219862
-0.022099
-0.0221801
-0.0222357
-0.0222704
-0.0222871
0.064786
0.0648319
0.0649259
0.0650732
0.0652815
0.0655622
0.0659307
0.0664077
0.0670202
0.0678044
0.068807
0.0700899
0.0717339
0.0738452
0.0765641
0.0800748
0.0846196
0.0905123
0.0981728
0.108156
0.121111
0.137612
0.160251
0.179818
0.208847
0.236794
0.264768
0.291813
0.310578
0.312104
0.290729
0.248489
0.195313
0.142003
0.0953188
0.0512942
0.0290958
0.00438131
-0.00453698
-0.0108366
-0.0153823
-0.0185844
-0.02089
-0.0225599
-0.0237652
-0.0246337
-0.0252536
-0.0256866
-0.0259806
-0.0261708
-0.0262848
-0.0263439
-0.0263644
-0.0263594
-0.0263392
-0.0263119
-0.0262833
-0.0262582
-0.0262396
-0.0262299
0.0623306
0.0623526
0.0623982
0.0624714
0.0625782
0.0627275
0.0629314
0.0632065
0.0635751
0.0640678
0.0647246
0.0656004
0.0667686
0.0683283
0.0704146
0.0732102
0.0769647
0.0820128
0.0888144
0.0980195
0.110474
0.126913
0.15043
0.174521
0.209587
0.247274
0.289513
0.335194
0.372479
0.383395
0.353595
0.287188
0.20646
0.132401
0.0748636
0.0261891
0.00485349
-0.0174061
-0.0235416
-0.027286
-0.0296704
-0.0310627
-0.0318926
-0.0323477
-0.0325475
-0.0325779
-0.0324933
-0.0323311
-0.03212
-0.0318806
-0.0316288
-0.0313772
-0.0311349
-0.0309099
-0.0307078
-0.0305335
-0.0303901
-0.0302805
-0.0302064
-0.030169
0.0598475
0.0598436
0.0598368
0.0598295
0.0598253
0.0598299
0.0598511
0.0599
0.0599921
0.0601491
0.0604011
0.0607902
0.061375
0.0622375
0.0634933
0.0653047
0.0679031
0.0716104
0.0768831
0.0844017
0.0951483
0.110025
0.132241
0.159997
0.199526
0.24736
0.308014
0.383009
0.457495
0.493658
0.450072
0.335263
0.205817
0.103409
0.036511
-0.0117877
-0.027776
-0.0437475
-0.0454311
-0.045471
-0.0450365
-0.0442383
-0.0433646
-0.042456
-0.0415512
-0.0406759
-0.0398395
-0.039048
-0.0383066
-0.0376184
-0.0369862
-0.0364122
-0.0358984
-0.0354462
-0.0350567
-0.0347311
-0.0344698
-0.0342734
-0.0341424
-0.0340767
0.057363
0.057332
0.0572702
0.0571781
0.0570568
0.0569078
0.0567338
0.056539
0.0563301
0.0561179
0.055918
0.0557548
0.0556646
0.0557012
0.0559459
0.0565181
0.0575989
0.0594538
0.0624716
0.0672645
0.0748251
0.0861274
0.103859
0.133092
0.173039
0.228269
0.306993
0.4215
0.569408
0.67826
0.609151
0.382488
0.166057
0.0333657
-0.0312133
-0.0660293
-0.0694645
-0.0737497
-0.0692615
-0.0646093
-0.0608932
-0.0576729
-0.0549681
-0.0526236
-0.0505747
-0.0487705
-0.0471677
-0.0457368
-0.0444577
-0.043315
-0.0422978
-0.041398
-0.0406096
-0.0399279
-0.0393493
-0.038871
-0.0384908
-0.038207
-0.0380184
-0.0379243
0.0549047
0.0548463
0.0547287
0.0545506
0.0543097
0.0540036
0.0536287
0.0531816
0.0526587
0.0520574
0.0513764
0.0506176
0.0497881
0.048904
0.047997
0.0471213
0.046374
0.0459135
0.0459854
0.0469983
0.0497672
0.05519
0.0645341
0.0913512
0.124373
0.178697
0.261798
0.405597
0.672182
1.01584
0.888608
0.360277
0.0147795
-0.113052
-0.13887
-0.136046
-0.117752
-0.104668
-0.0931164
-0.0834352
-0.0763923
-0.0707778
-0.0662845
-0.0625487
-0.0593957
-0.0566933
-0.0543468
-0.0522931
-0.0504881
-0.0488993
-0.0475032
-0.0462822
-0.0452225
-0.044314
-0.0435482
-0.0429189
-0.042421
-0.0420506
-0.041805
-0.0416827
0.0525008
0.0524156
0.0522434
0.051981
0.0516228
0.0511618
0.0505884
0.0498907
0.0490542
0.0480617
0.0468931
0.0455247
0.04393
0.0420797
0.0399448
0.0374956
0.0347145
0.0316059
0.0282003
0.0245661
0.0211017
0.018478
0.0156513
0.0351161
0.0520833
0.0909734
0.148734
0.24032
0.454901
1.49306
1.31424
-0.115334
-0.403191
-0.36695
-0.283329
-0.210925
-0.164867
-0.131962
-0.114296
-0.100314
-0.0905097
-0.0828901
-0.0768718
-0.0719273
-0.0677964
-0.064282
-0.0612511
-0.0586166
-0.0563157
-0.0543025
-0.0525437
-0.0510135
-0.0496922
-0.0485641
-0.0476168
-0.0468408
-0.0462284
-0.0457738
-0.0454729
-0.0453231
0.0501787
0.0500683
0.0498449
0.0495032
0.0490345
0.0484275
0.0476664
0.0467312
0.0455964
0.0442304
0.0425935
0.0406365
0.0382971
0.035498
0.0321434
0.028111
0.0232494
0.0173762
0.0102613
0.00153524
-0.0090487
-0.021154
-0.0388687
-0.0316679
-0.038183
-0.0263414
-0.0105923
-0.0345718
-0.438084
-2.21748
-1.16422
-0.675156
-0.420771
-0.26636
-0.198548
-0.150376
-0.129934
-0.113642
-0.102305
-0.0934331
-0.0863586
-0.0805076
-0.075596
-0.0713995
-0.0677732
-0.0646197
-0.0618669
-0.0594619
-0.0573648
-0.0555442
-0.0539756
-0.0526394
-0.0515196
-0.0506039
-0.0498822
-0.0493472
-0.0489933
-0.0488172
0.0479644
0.0478315
0.0475622
0.0471493
0.0465817
0.0458437
0.0449142
0.0437658
0.0423632
0.0406615
0.0386032
0.0361149
0.0331018
0.0294407
0.0249724
0.0194844
0.0126927
0.00422192
-0.00642316
-0.0200608
-0.0377486
-0.0594703
-0.0927265
-0.101572
-0.136183
-0.158253
-0.170911
-0.163963
0.187823
0.117168
-4.77259
-1.63195
-0.815293
-0.46897
-0.274006
-0.206785
-0.156384
-0.13823
-0.122499
-0.111265
-0.102093
-0.0945352
-0.0881372
-0.0826746
-0.0779471
-0.0738288
-0.0702293
-0.0670778
-0.0643208
-0.0619158
-0.0598288
-0.0580319
-0.0565026
-0.0552222
-0.0541761
-0.0533524
-0.0527423
-0.0523388
-0.0521379
0.0458813
0.0457293
0.0454212
0.0449484
0.0442973
0.0434491
0.0423783
0.0410516
0.0394256
0.0374447
0.0350371
0.0321101
0.0285425
0.0241743
0.0187945
0.0121175
0.00375127
-0.0068447
-0.0203848
-0.038039
-0.0617199
-0.0915339
-0.138212
-0.164461
-0.228213
-0.293537
-0.365486
-0.486846
-0.594175
-1.05716
-3.43015
-2.62527
-1.14761
-0.611261
-0.378297
-0.226211
-0.187791
-0.151246
-0.139885
-0.127327
-0.117626
-0.108983
-0.10144
-0.0948101
-0.0890003
-0.0838804
-0.0793685
-0.0753947
-0.0718992
-0.0688327
-0.0661538
-0.0638275
-0.0618243
-0.0601197
-0.0586932
-0.0575282
-0.0566112
-0.0559323
-0.0554835
-0.05526
0.0439492
0.0437824
0.0434441
0.0429247
0.0422092
0.0412764
0.0400978
0.0386359
0.0368422
0.0346539
0.0319898
0.0287452
0.0247822
0.0199176
0.0139089
0.0064274
-0.00298328
-0.0149674
-0.0303679
-0.0504896
-0.0779757
-0.112653
-0.167577
-0.208545
-0.294048
-0.40198
-0.551464
-0.914189
-1.70764
-2.33791
-1.99529
-0.796723
-0.27553
-0.222167
-0.202602
-0.150776
-0.154874
-0.141753
-0.13845
-0.130053
-0.12241
-0.114647
-0.107355
-0.100662
-0.0946272
-0.0892085
-0.0843771
-0.0800889
-0.0762983
-0.0729632
-0.0700444
-0.0675074
-0.0653217
-0.0634615
-0.0619048
-0.0606338
-0.0596336
-0.0588932
-0.0584039
-0.0581602
0.0421836
0.0420068
0.041648
0.0410972
0.0403386
0.0393499
0.0381012
0.0365533
0.0346551
0.0323414
0.0295276
0.0261046
0.0219303
0.0168156
0.0105107
0.00268061
-0.00713612
-0.0196028
-0.0355786
-0.0562161
-0.0845711
-0.119726
-0.175419
-0.224121
-0.314649
-0.442997
-0.620144
-1.06531
-2.20618
-3.16435
-1.82971
-0.0563884
0.361763
0.0904007
-0.0514372
-0.094527
-0.129868
-0.137118
-0.138825
-0.133306
-0.127011
-0.119837
-0.112677
-0.105894
-0.0996493
-0.0939657
-0.0888564
-0.0842963
-0.0802514
-0.0766848
-0.0735592
-0.0708402
-0.0684967
-0.0665019
-0.0648326
-0.0634696
-0.0623972
-0.0616033
-0.0610788
-0.0608175
0.0405953
0.0404134
0.0400444
0.0394782
0.0386991
0.0376848
0.0364058
0.0348233
0.0328875
0.0305344
0.0276823
0.0242263
0.0200319
0.014922
0.00866449
0.00095688
-0.00861014
-0.02063
-0.0358697
-0.0550867
-0.0812657
-0.112519
-0.161238
-0.209475
-0.287891
-0.405699
-0.541941
-0.83899
-1.37569
-1.73099
-1.21491
-0.0837996
0.394765
0.147381
-0.00769535
-0.0914663
-0.129422
-0.143791
-0.144635
-0.139094
-0.132537
-0.125164
-0.117734
-0.110677
-0.104145
-0.0981811
-0.092808
-0.088004
-0.0837382
-0.0799741
-0.0766736
-0.0738016
-0.071326
-0.0692186
-0.0674551
-0.0660153
-0.0648825
-0.0640439
-0.0634899
-0.063214
0.0391899
0.0390078
0.0386388
0.0380733
0.0372961
0.0362865
0.0350166
0.0334505
0.0315419
0.0292329
0.0264498
0.0230995
0.0190654
0.0141978
0.0083031
0.00113898
-0.00760821
-0.0183895
-0.0317844
-0.0480601
-0.0696358
-0.0938377
-0.129917
-0.171039
-0.2259
-0.313065
-0.3991
-0.560498
-0.755423
-0.972915
-0.571218
-0.0271294
-0.0188223
-0.068166
-0.0978396
-0.144656
-0.156149
-0.161658
-0.15615
-0.147718
-0.139228
-0.130796
-0.12262
-0.115054
-0.108129
-0.101851
-0.0962179
-0.091193
-0.0867373
-0.0828088
-0.0793658
-0.0763708
-0.0737897
-0.0715928
-0.0697545
-0.0682539
-0.0670732
-0.0661993
-0.0656219
-0.0653343
0.0379676
0.0377903
0.0374311
0.0368813
0.0361273
0.0351507
0.0339267
0.0324238
0.0306022
0.0284126
0.0257937
0.0226698
0.0189497
0.0145199
0.00923585
0.00293203
-0.0045739
-0.0135608
-0.0243889
-0.0368843
-0.0526213
-0.0686087
-0.0899835
-0.119791
-0.147144
-0.196041
-0.256473
-0.354803
-0.546226
-0.553735
-0.513459
-0.570881
-0.558239
-0.33747
-0.245363
-0.223382
-0.197014
-0.185007
-0.170519
-0.157745
-0.146363
-0.136363
-0.127137
-0.118914
-0.11153
-0.104928
-0.0990499
-0.0938341
-0.0892241
-0.0851675
-0.0816166
-0.07853
-0.0758716
-0.0736093
-0.0717167
-0.0701719
-0.0689566
-0.0680569
-0.0674625
-0.0671665
0.0369239
0.0367556
0.036415
0.0358946
0.0351829
0.0342644
0.0331186
0.0317196
0.0300355
0.0280279
0.0256507
0.0228479
0.0195563
0.0157006
0.0111968
0.00595442
-8.22227e-05
-0.00702255
-0.0150109
-0.0236275
-0.0335389
-0.0419976
-0.0499531
-0.0675967
-0.0703141
-0.0782112
-0.136069
-0.270307
-0.372597
-0.594263
-0.875053
-1.03015
-0.775526
-0.487331
-0.354885
-0.289644
-0.235097
-0.206044
-0.183483
-0.166847
-0.152654
-0.141135
-0.130866
-0.12202
-0.11421
-0.107325
-0.10125
-0.0958901
-0.0911717
-0.0870295
-0.0834092
-0.0802654
-0.077559
-0.0752568
-0.0733312
-0.0717595
-0.070523
-0.0696077
-0.069003
-0.0687019
0.0360497
0.0358941
0.0355796
0.0351002
0.0344468
0.0336073
0.0325659
0.0313034
0.0297965
0.0280184
0.0259387
0.0235208
0.0207294
0.0175301
0.0138909
0.00978543
0.00526224
0.000343364
-0.00491944
-0.0101075
-0.0150811
-0.0179007
-0.0159452
-0.0234647
-0.0100605
0.00635391
-0.00240933
-0.0206667
-0.222327
-0.551434
-0.880643
-0.92076
-0.677451
-0.49265
-0.390269
-0.322141
-0.258603
-0.219379
-0.191645
-0.172967
-0.156897
-0.144391
-0.133365
-0.124107
-0.11601
-0.10895
-0.102758
-0.0973239
-0.0925553
-0.0883777
-0.0847313
-0.0815672
-0.0788444
-0.0765287
-0.0745918
-0.0730109
-0.0717672
-0.0708465
-0.0702381
-0.0699352
0.035332
0.0351922
0.0349098
0.0344805
0.0338978
0.0331532
0.0322361
0.0311337
0.0298316
0.028314
0.0265646
0.0245676
0.0223117
0.0197958
0.0170302
0.0140348
0.0109339
0.00782512
0.00493589
0.00247561
0.00122536
0.00190304
0.00967408
0.00813656
0.0254936
0.0477015
0.105614
0.0592946
-0.170441
-0.402722
-0.585392
-0.587222
-0.490195
-0.417473
-0.369212
-0.321926
-0.26449
-0.223272
-0.19376
-0.175089
-0.158391
-0.145673
-0.134338
-0.12498
-0.116805
-0.109727
-0.103531
-0.098109
-0.0933594
-0.0892028
-0.0855771
-0.0824318
-0.0797252
-0.077423
-0.0754971
-0.0739248
-0.0726876
-0.0717715
-0.071166
-0.0708646
0.0347549
0.0346329
0.034387
0.0340144
0.0335111
0.0328724
0.0320923
0.0311647
0.030083
0.0288412
0.0274369
0.0258709
0.0241519
0.0223033
0.0203668
0.0183893
0.0165463
0.0149531
0.0140077
0.0135797
0.0149632
0.0174293
0.0276675
0.0276081
0.039518
0.0571733
0.102274
0.0525459
-0.131049
-0.257322
-0.345655
-0.359212
-0.343745
-0.330764
-0.323339
-0.300342
-0.255967
-0.218699
-0.190326
-0.17325
-0.157013
-0.144834
-0.133694
-0.124569
-0.116542
-0.109618
-0.103548
-0.0982362
-0.0935803
-0.0895048
-0.0859485
-0.0828619
-0.0802042
-0.0779425
-0.0760495
-0.0745033
-0.0732861
-0.0723845
-0.0717885
-0.0714917
0.0343
0.0341973
0.0339904
0.0336785
0.0332597
0.0327329
0.0320963
0.0313494
0.0304929
0.0295296
0.0284683
0.0273226
0.0261163
0.0248899
0.0237062
0.0226228
0.0218497
0.0214746
0.0220682
0.0231122
0.026342
0.0295755
0.0403029
0.0389023
0.0423847
0.0520784
0.070226
0.0614973
-0.0750896
-0.161167
-0.216434
-0.23525
-0.246922
-0.259456
-0.274174
-0.268869
-0.238291
-0.207917
-0.182669
-0.168105
-0.15311
-0.142012
-0.131507
-0.122933
-0.115271
-0.108655
-0.102825
-0.0977183
-0.0932299
-0.0892947
-0.0858558
-0.0828669
-0.0802901
-0.078095
-0.076256
-0.0747527
-0.0735686
-0.072691
-0.0721105
-0.0718215
0.0339477
0.0338647
0.0336982
0.0334483
0.0331157
0.032702
0.0322094
0.0316422
0.031007
0.030314
0.02958
0.0288286
0.028094
0.0274271
0.0269045
0.0265821
0.0266967
0.0272749
0.0290597
0.0311497
0.0356978
0.039224
0.0496816
0.046374
0.0435126
0.0480628
0.054158
0.0635362
-0.0364298
-0.12457
-0.155775
-0.165203
-0.18483
-0.206673
-0.230473
-0.235204
-0.216258
-0.193411
-0.172261
-0.160524
-0.147248
-0.137543
-0.12796
-0.120167
-0.113056
-0.106897
-0.101411
-0.0965904
-0.0923372
-0.0885961
-0.0853185
-0.0824636
-0.0799976
-0.0778933
-0.076128
-0.0746834
-0.0735444
-0.0726996
-0.0721405
-0.071862
0.0336777
0.0336144
0.0334878
0.0332993
0.0330514
0.0327483
0.0323952
0.0320005
0.0315754
0.0311356
0.0307038
0.0303102
0.0299952
0.0298159
0.0298571
0.030164
0.0309964
0.032296
0.0349664
0.0377548
0.0432292
0.0468603
0.0570108
0.0527212
0.0476653
0.0515777
0.0542939
0.0619389
-0.0252039
-0.13392
-0.124318
-0.122426
-0.143528
-0.168118
-0.193664
-0.203302
-0.193193
-0.177213
-0.160367
-0.151359
-0.140016
-0.13184
-0.12334
-0.11646
-0.11002
-0.104424
-0.0993735
-0.0949083
-0.0909436
-0.0874437
-0.0843649
-0.0816756
-0.0793468
-0.0773551
-0.0756812
-0.0743092
-0.0732262
-0.0724223
-0.0718898
-0.0716245
0.0334698
0.0334255
0.0333373
0.0332076
0.0330405
0.032842
0.03262
0.0323856
0.0321538
0.0319438
0.0317821
0.0317028
0.0317495
0.0319817
0.0324879
0.033296
0.034685
0.0364963
0.0397724
0.0429572
0.0490106
0.0526519
0.0627243
0.0588378
0.0554209
0.0623584
0.0624798
0.0566884
-0.0427002
-0.159089
-0.0940937
-0.0928074
-0.115388
-0.138908
-0.162803
-0.174844
-0.171033
-0.160741
-0.147919
-0.141327
-0.131937
-0.125289
-0.117946
-0.112034
-0.106328
-0.101351
-0.0967916
-0.0927368
-0.0891028
-0.0858787
-0.0830305
-0.0805323
-0.0783626
-0.0765021
-0.0749346
-0.0736475
-0.0726301
-0.0718739
-0.0713727
-0.0711228
0.0333048