/*--------------------------------*- C++ -*----------------------------------*\
  =========                 |
  \\      /  F ield         | OpenFOAM: The Open Source CFD Toolbox
   \\    /   O peration     | Website:  https://openfoam.org
    \\  /    A nd           | Version:  12
     \\/     M anipulation  |
\*---------------------------------------------------------------------------*/
FoamFile
{
    format      ascii;
    class       surfaceScalarField;
    location    "460";
    object      phi;
}
// * * * * * * * * * * * * * * * * * * * * * * * * * * * * * * * * * * * * * //

dimensions      [0 3 -1 0 0 0 0];

internalField   nonuniform List<scalar> 
32440
(
-4.22703e-08
0.039988
1.91962e-06
0.039988
-1.12113e-07
0.03999
1.86579e-06
0.039988
-1.43285e-07
0.03999
1.86383e-06
0.039998
1.89057e-06
0.04001
1.9401e-06
0.04001
4.01589e-06
0.0400099
6.12109e-06
0.0400099
8.25888e-06
0.0400099
4.43191e-06
0.0400038
4.64198e-06
0.0399998
4.89174e-06
0.0399998
5.18275e-06
0.0399997
5.51604e-06
0.0399997
5.89191e-06
0.0399996
6.30979e-06
0.0399996
6.76818e-06
0.0399995
7.26443e-06
0.0399995
7.79478e-06
0.0399995
8.35434e-06
0.0399994
8.93723e-06
0.0399994
9.53643e-06
0.0399994
1.0144e-05
0.0399994
1.07512e-05
0.0399994
1.13489e-05
0.0399994
1.19269e-05
0.0399994
1.08769e-05
0.0400011
5.72834e-06
0.0400051
4.6555e-06
0.0400011
4.86706e-06
0.0399998
5.21792e-06
0.0399996
5.50271e-06
0.0399997
6.71748e-06
0.0399988
6.85982e-06
0.0399999
6.92863e-06
0.0399999
6.92427e-06
0.04
6.84828e-06
0.0400001
6.70334e-06
0.0400001
6.49302e-06
0.0400002
6.22157e-06
0.0400003
5.89375e-06
0.0400003
5.51465e-06
0.0400004
5.08944e-06
0.0400004
4.62331e-06
0.0400005
4.12127e-06
0.0400005
3.58881e-06
0.0400005
3.02881e-06
0.0400006
2.44613e-06
0.0400006
1.84438e-06
0.0400006
-7.73084e-07
0.0400026
-7.40204e-06
0.0400066
-2.04198e-06
0.0400066
1.30911e-06
0.0400086
6.53631e-07
0.0400107
1.99395e-06
0.0399987
1.33113e-06
0.0399887
6.66333e-07
0.0399907
0.0399887
-4.42329e-07
0.0399885
-8.72185e-07
0.0399885
-1.28057e-06
0.0399904
-1.65646e-06
0.0399884
1.14175e-08
0.0399883
1.73416e-06
0.0399963
3.52333e-06
0.0400082
3.39059e-06
0.0400101
5.34799e-06
0.040008
9.40692e-06
0.0400058
1.35798e-05
0.0400057
5.87761e-06
0.0400115
2.30756e-06
0.0400034
2.88017e-06
0.0399992
3.60295e-06
0.039999
4.48187e-06
0.0399988
5.52041e-06
0.0399986
6.71923e-06
0.0399984
8.07586e-06
0.0399982
9.58409e-06
0.039998
1.12331e-05
0.0399978
1.30095e-05
0.0399977
1.48951e-05
0.0399975
1.68675e-05
0.0399974
1.89011e-05
0.0399974
2.11667e-05
0.0399971
2.32331e-05
0.0399973
2.4868e-05
0.0399978
2.54364e-05
0.0400005
2.15991e-05
0.040009
2.18428e-05
0.0400008
2.34204e-05
0.0399982
2.48126e-05
0.0399983
2.59976e-05
0.0399985
2.57586e-05
0.039999
2.64855e-05
0.0399991
2.69672e-05
0.0399994
2.72039e-05
0.0399998
2.71977e-05
0.0400001
2.69555e-05
0.0400004
2.64869e-05
0.0400007
2.58048e-05
0.040001
2.49238e-05
0.0400012
2.38618e-05
0.0400014
2.4632e-05
0.0399997
2.32532e-05
0.0400018
2.17425e-05
0.040002
2.01153e-05
0.0400022
1.83887e-05
0.0400023
1.65774e-05
0.0400024
1.26914e-05
0.0400045
6.74627e-06
0.0400086
2.75197e-06
0.0400106
2.7126e-06
0.0400067
2.63913e-06
0.0400087
2.53981e-06
0.0400108
6.42127e-06
0.0399948
2.28845e-06
0.0399928
2.14636e-06
0.0399908
0.0399908
-9.96399e-07
0.0399895
-1.97333e-06
0.0399894
-9.13651e-07
0.0399894
-1.79884e-06
0.0399893
-4.60973e-06
0.0399912
6.73532e-07
0.039991
6.93012e-08
0.0400088
1.59972e-06
0.0400086
3.284e-06
0.0400063
5.14446e-06
0.040004
7.20023e-06
0.0400036
-5.23727e-07
0.0400193
-2.01696e-06
0.0400049
-1.2594e-06
0.0399984
-2.34693e-07
0.039998
1.06822e-06
0.0399975
2.65799e-06
0.039997
4.53806e-06
0.0399965
1.07063e-05
0.039992
9.15626e-06
0.0399995
1.18702e-05
0.0399951
1.48272e-05
0.0399947
1.7998e-05
0.0399944
2.13455e-05
0.0399941
2.48263e-05
0.0399939
2.83906e-05
0.0399936
3.19842e-05
0.0399937
3.55475e-05
0.0399942
3.74252e-05
0.0399986
3.50706e-05
0.0400113
3.66868e-05
0.0399992
3.93566e-05
0.0399955
4.1922e-05
0.0399957
4.41429e-05
0.0399963
4.6987e-05
0.0399962
4.8429e-05
0.0399977
4.94581e-05
0.0399984
5.00696e-05
0.0399992
5.02592e-05
0.0399999
5.00392e-05
0.0400006
4.94252e-05
0.0400013
4.84381e-05
0.0400019
4.71051e-05
0.0400025
4.54454e-05
0.0400031
4.14948e-05
0.0400036
3.92805e-05
0.0400041
3.68341e-05
0.0400045
3.6179e-05
0.0400028
3.33439e-05
0.0400051
2.83545e-05
0.0400074
2.32345e-05
0.0400096
1.00128e-05
0.0400218
1.26877e-05
0.0400079
1.12848e-05
0.0400081
9.82137e-06
0.0400102
1.031e-05
0.0400103
1.07634e-05
0.0399943
7.19005e-06
0.0399964
3.59955e-06
0.0399944
0.0399944
-1.547e-06
0.039991
-3.06804e-06
0.039991
-4.53776e-06
0.0399908
-5.93015e-06
0.0399907
-5.21836e-06
0.0399904
-6.37518e-06
0.0399921
-1.37222e-06
0.0400038
-1.81728e-07
0.0400074
1.22805e-06
0.0400049
8.84983e-07
0.0400043
8.22179e-07
0.0400037
-2.92893e-06
0.040023
-6.34854e-06
0.0400083
-7.40617e-06
0.0399995
-6.07998e-06
0.0399966
-2.34888e-06
0.0399938
1.79961e-06
0.0399928
1.43716e-05
0.0399839
2.33698e-05
0.039983
1.47887e-05
0.0400081
1.26015e-05
0.0399973
1.678e-05
0.0399905
2.12842e-05
0.0399899
2.60614e-05
0.0399893
3.10517e-05
0.0399889
3.6183e-05
0.0399884
4.13769e-05
0.0399885
4.63508e-05
0.0399893
5.00126e-05
0.0399949
4.92013e-05
0.0400122
5.22715e-05
0.0399961
5.63025e-05
0.0399915
6.03004e-05
0.0399917
6.36078e-05
0.039993
6.51764e-05
0.0399946
6.73699e-05
0.0399955
6.89656e-05
0.0399968
6.99547e-05
0.0399982
7.23374e-05
0.0399975
7.21276e-05
0.0400008
7.13476e-05
0.0400021
7.0031e-05
0.0400033
6.82017e-05
0.0400044
6.59094e-05
0.0400054
6.31963e-05
0.0400063
6.00971e-05
0.0400072
5.66554e-05
0.0400079
5.092e-05
0.0400085
4.89215e-05
0.0400071
4.46987e-05
0.0400116
3.02897e-05
0.040024
2.57255e-05
0.0400263
2.10141e-05
0.0400127
1.81916e-05
0.0400109
1.52816e-05
0.0400131
1.83047e-05
0.0400072
1.3273e-05
0.0399994
1.02035e-05
0.0399994
5.10872e-06
0.0399995
0.0399995
-2.09851e-06
0.0399931
-4.16444e-06
0.039993
-6.16518e-06
0.0399929
-8.06723e-06
0.0399926
-9.83788e-06
0.0399922
-9.44049e-06
0.0399917
-2.8396e-06
0.0399972
-3.99767e-06
0.0400085
-4.87629e-06
0.0400058
-3.4352e-06
0.0400029
-1.63404e-06
0.0400019
-1.42965e-06
0.0400228
-8.7871e-06
0.0400156
-9.67595e-06
0.0400004
-8.05955e-06
0.039995
-5.91064e-06
0.0399916
2.79103e-06
0.0399841
2.00547e-05
0.0399667
1.78964e-05
0.0399852
1.23031e-05
0.0400137
1.3242e-05
0.0399964
1.86794e-05
0.0399851
2.45659e-05
0.039984
3.08358e-05
0.039983
3.74059e-05
0.0399823
4.41826e-05
0.0399817
5.10613e-05
0.0399817
5.79263e-05
0.0399824
6.30699e-05
0.0399898
6.38817e-05
0.0400113
6.8504e-05
0.0399915
7.41648e-05
0.0399858
7.90643e-05
0.0399868
8.37213e-05
0.0399883
8.826e-05
0.0399901
9.12362e-05
0.0399925
9.34188e-05
0.0399946
9.47901e-05
0.0399968
9.33671e-05
0.0399989
9.31521e-05
0.040001
9.21807e-05
0.040003
9.24941e-05
0.0400029
9.0138e-05
0.0400067
8.7171e-05
0.0400084
8.36349e-05
0.0400099
7.95997e-05
0.0400112
7.51218e-05
0.0400124
7.02433e-05
0.0400134
6.30304e-05
0.0400143
4.95248e-05
0.0400251
3.17921e-05
0.0400417
3.78162e-05
0.0400203
3.3666e-05
0.0400168
2.7376e-05
0.0400172
2.49721e-05
0.0400155
2.64793e-05
0.0400057
1.99181e-05
0.0400059
1.33061e-05
0.0400061
6.66207e-06
0.0400061
0.0400062
-2.68626e-06
0.0399958
-3.33254e-06
0.0399937
-5.90132e-06
0.0399954
-8.3525e-06
0.039995
-1.06454e-05
0.0399945
-1.2737e-05
0.0399938
-1.05833e-05
0.039995
-6.13845e-06
0.0400041
-7.35486e-06
0.040007
-8.1821e-06
0.0400037
-6.57219e-06
0.0400003
1.15255e-05
0.0400047
-5.81379e-06
0.040033
-1.25813e-05
0.0400071
-1.27211e-05
0.0399952
-8.19521e-06
0.0399871
3.02251e-06
0.0399729
1.09574e-05
0.0399587
1.16273e-05
0.0399845
9.02171e-06
0.0400163
1.31019e-05
0.0399923
1.983e-05
0.0399784
2.7146e-05
0.0399767
3.49682e-05
0.0399752
4.31932e-05
0.0399741
5.1706e-05
0.0399731
6.05717e-05
0.0399728
6.8849e-05
0.0399741
7.59788e-05
0.0399827
7.85384e-05
0.0400088
8.48213e-05
0.0399852
9.18284e-05
0.0399788
9.85256e-05
0.0399801
0.000104001
0.0399829
0.00010778
0.0399863
0.000111598
0.0399887
0.000116405
0.0399898
0.00011819
0.039995
0.000118961
0.0399982
0.000118737
0.0400013
0.000117567
0.0400042
0.000113485
0.040007
0.000110576
0.0400096
0.000108887
0.04001
0.000104509
0.0400142
9.94995e-05
0.0400162
9.39363e-05
0.0400179
8.78866e-05
0.0400195
7.94154e-05
0.0400228
6.25959e-05
0.0400419
5.7481e-05
0.0400469
5.20773e-05
0.0400257
4.44646e-05
0.0400244
3.86815e-05
0.040023
4.07664e-05
0.0400134
3.27348e-05
0.0400138
2.46204e-05
0.040014
1.64462e-05
0.0400142
8.23353e-06
0.0400143
0.0400144
-3.33373e-06
0.0399991
-6.62044e-06
0.039997
-9.81806e-06
0.0399986
-1.28806e-05
0.0399981
-1.5761e-05
0.0399974
-1.84091e-05
0.0399965
-1.87731e-05
0.0399954
-1.27967e-05
0.0399981
-1.24268e-05
0.0400066
-1.16012e-05
0.0400029
-1.22587e-05
0.0400009
-8.33901e-06
0.0400008
-5.75798e-06
0.0400304
-1.84772e-05
0.0400199
-1.64472e-05
0.0399931
-7.61155e-06
0.0399782
1.60581e-05
0.0399493
4.63333e-06
0.0399702
6.10545e-06
0.039983
6.47759e-06
0.040016
1.17083e-05
0.039987
1.97567e-05
0.0399703
2.85542e-05
0.0399679
3.8002e-05
0.0399658
4.79827e-05
0.0399641
5.8546e-05
0.0399626
6.89284e-05
0.0399624
7.95454e-05
0.0399635
8.84177e-05
0.0399738
9.28767e-05
0.0400043
0.000100954
0.0399772
0.000109845
0.03997
0.000117663
0.0399723
0.000124879
0.0399757
0.000131585
0.0399796
0.000136303
0.039984
0.000137785
0.0399884
0.000140012
0.0399928
0.000140993
0.0399972
0.000142759
0.0399995
0.000141366
0.0400056
0.000138877
0.0400095
0.000135375
0.0400131
0.00012895
0.0400165
0.000125673
0.0400175
0.000119659
0.0400222
0.000112978
0.0400246
0.000105719
0.0400267
8.59708e-05
0.0400426
6.18416e-05
0.0400661
7.12854e-05
0.0400374
6.44261e-05
0.0400326
5.73351e-05
0.0400315
5.60471e-05
0.0400243
4.65937e-05
0.0400229
3.70137e-05
0.0400233
2.73387e-05
0.0400237
1.75952e-05
0.040024
9.80968e-06
0.0400221
0.0400242
-2.05271e-06
0.0400012
-8.05274e-06
0.040003
-1.19531e-05
0.0400025
-1.37027e-05
0.0399998
-1.72497e-05
0.0400009
-2.05371e-05
0.0399998
-2.35041e-05
0.0399984
-2.20908e-05
0.0399967
-1.82277e-05
0.0400027
-1.98461e-05
0.0400045
-2.08701e-05
0.040002
-1.72334e-05
0.0399971
7.14685e-06
0.040006
-1.35956e-05
0.0400406
-2.54808e-05
0.040005
-1.84162e-05
0.0399712
-6.35226e-06
0.0399372
-3.20859e-06
0.039967
1.02467e-06
0.0399788
2.36125e-06
0.0400146
8.75253e-06
0.0399807
1.81573e-05
0.0399609
2.84989e-05
0.0399575
3.96683e-05
0.0399546
5.15175e-05
0.0399523
6.38694e-05
0.0399502
7.65288e-05
0.0399498
8.92761e-05
0.0399507
0.000100073
0.039963
0.000106804
0.0399976
0.000116876
0.0399671
0.000127403
0.0399594
0.000137093
0.0399626
0.000145582
0.0399672
0.00015372
0.0399715
0.000159416
0.0399783
0.000163635
0.0399841
0.000166334
0.0399901
0.000167537
0.039996
0.000165287
0.0400017
0.000165652
0.0400052
0.000162728
0.0400124
0.000158587
0.0400173
0.000153364
0.0400217
0.000147166
0.0400237
0.000140087
0.0400293
0.000132236
0.0400325
0.000119737
0.0400392
9.867e-05
0.0400636
9.11438e-05
0.0400736
8.51537e-05
0.0400434
7.68354e-05
0.0400409
7.62485e-05
0.0400321
6.74374e-05
0.0400331
5.64415e-05
0.0400339
4.53057e-05
0.0400345
3.40651e-05
0.0400349
2.27495e-05
0.0400353
1.13863e-05
0.0400335
0.0400356
-4.85466e-06
0.0400061
-9.64854e-06
0.0400078
-1.23346e-05
0.0400052
-1.886e-05
0.0400064
-2.11632e-05
0.0400032
-2.51842e-05
0.0400038
-2.88558e-05
0.040002
-3.21068e-05
0.0399999
-2.68568e-05
0.0399975
-2.70319e-05
0.0400047
-2.85432e-05
0.0400035
-2.92969e-05
0.0399979
-2.32042e-05
0.0399999
-3.01263e-05
0.0400475
-3.00411e-05
0.0400049
-1.68589e-05
0.039958
-1.64808e-05
0.0399368
-1.28359e-05
0.0399634
-5.88949e-06
0.0399719
-3.60878e-06
0.0400123
3.95239e-06
0.0399731
1.4756e-05
0.0399501
2.67209e-05
0.0399456
3.97194e-05
0.0399416
5.35813e-05
0.0399384
6.81058e-05
0.0399357
8.30439e-05
0.0399348
9.79245e-05
0.0399359
0.000111474
0.0399494
0.000120328
0.0399887
0.000132604
0.0399548
0.000145191
0.0399468
0.000156937
0.0399508
0.000167031
0.0399571
0.000174338
0.0399641
0.000181117
0.0399715
0.000186115
0.0399791
0.000191313
0.0399849
0.000192739
0.0399946
0.000192461
0.040002
0.000188538
0.0400092
0.000187111
0.0400139
0.000182302
0.0400221
0.000176224
0.0400278
0.000167019
0.0400329
0.000160815
0.0400355
0.000149765
0.0400435
0.000125961
0.040063
9.56121e-05
0.040094
0.000110585
0.0400586
0.00010111
0.0400529
9.93114e-05
0.0400427
8.7198e-05
0.0400442
7.48415e-05
0.0400454
6.22924e-05
0.0400464
4.95942e-05
0.0400472
3.87878e-05
0.0400458
2.58991e-05
0.0400482
1.09574e-05
0.0400484
0.0400466
-5.74498e-06
0.0400118
-9.42167e-06
0.0400114
-1.69884e-05
0.0400128
-2.03818e-05
0.0400098
-2.75439e-05
0.0400104
-3.2404e-05
0.0400087
-3.48892e-05
0.0400045
-3.89226e-05
0.040004
-4.24158e-05
0.040001
-3.52724e-05
0.0399975
-3.54013e-05
0.0400036
-3.86887e-05
0.0400012
-3.70232e-05
0.0399982
-2.62738e-05
0.0400368
-2.83476e-05
0.040007
-5.19013e-06
0.0399348
-2.2587e-05
0.0399542
-2.05214e-05
0.0399613
-1.69198e-05
0.0399683
-9.73105e-06
0.0400051
-9.91913e-07
0.0399644
9.26067e-06
0.0399399
2.29381e-05
0.0399319
3.79002e-05
0.0399266
5.39576e-05
0.0399223
7.08579e-05
0.0399188
8.85194e-05
0.0399172
0.00010602
0.0399184
0.000122001
0.0399335
0.000133447
0.0399773
0.000148402
0.0399399
0.000163303
0.0399319
0.000176727
0.0399374
0.000188833
0.039945
0.000199628
0.0399533
0.000207583
0.0399636
0.000213427
0.0399733
0.000215147
0.0399832
0.000218784
0.0399909
0.00021842
0.0400024
0.000216183
0.0400114
0.000210189
0.0400199
0.000206594
0.0400257
0.00019958
0.0400348
0.000191297
0.0400412
0.000179911
0.0400469
0.000167553
0.0400559
0.000146393
0.0400842
0.000134586
0.0401058
0.0001281
0.0400651
0.000125164
0.0400558
0.000111826
0.040056
9.81672e-05
0.0400579
8.42544e-05
0.0400593
7.01419e-05
0.0400605
5.78795e-05
0.0400594
4.14968e-05
0.0400621
2.90402e-05
0.0400606
1.45288e-05
0.0400629
0.0400611
-6.7298e-06
0.0400185
-1.33868e-05
0.0400181
-1.79279e-05
0.0400173
-2.62962e-05
0.0400181
-3.04191e-05
0.0400145
-3.62347e-05
0.0400145
-4.16573e-05
0.0400099
-4.66031e-05
0.0400089
-5.0975e-05
0.0400053
-5.46678e-05
0.0400012
-4.75665e-05
0.0399965
-4.75478e-05
0.0400012
-4.64996e-05
0.0399972
-1.02806e-05
0.0400005
-3.26021e-05
0.0400293
-3.75678e-05
0.0399398
-3.89053e-05
0.0399556
-3.45415e-05
0.0399569
-2.43755e-05
0.0399581
-1.03309e-05
0.0399911
-1.03913e-05
0.0399644
1.36059e-06
0.0399281
1.68547e-05
0.0399164
3.39433e-05
0.0399095
5.24011e-05
0.0399039
7.19501e-05
0.0398993
9.22392e-05
0.0398969
0.000112673
0.0398979
0.000131841
0.0399143
0.000146243
0.0399629
0.000163814
0.0399223
0.000181308
0.0399144
0.000197483
0.0399212
0.000211208
0.0399312
0.000221854
0.0399427
0.0002311
0.0399543
0.00023984
0.0399646
0.000244087
0.0399789
0.000243903
0.0399911
0.000245401
0.0400009
0.000242732
0.0400141
0.000238074
0.0400245
0.000231628
0.0400321
0.00022357
0.0400428
0.000214104
0.0400507
0.000199421
0.0400616
0.000167703
0.0400876
0.000143156
0.0401087
0.00015578
0.0400932
0.000151778
0.0400691
0.000139283
0.0400683
0.000124381
0.0400709
0.000109151
0.0400731
9.56688e-05
0.0400728
7.9978e-05
0.0400762
6.21399e-05
0.0400773
4.81944e-05
0.0400761
3.01627e-05
0.0400787
1.60899e-05
0.040077
0.0400772
-7.81214e-06
0.0400263
-1.55474e-05
0.0400258
-2.31688e-05
0.0400249
-2.86137e-05
0.0400236
-3.78202e-05
0.0400237
-4.27082e-05
0.0400194
-5.12003e-05
0.0400184
-5.51952e-05
0.0400129
-6.06009e-05
0.0400108
-6.5289e-05
0.0400059
-6.91336e-05
0.0400003
-6.19895e-05
0.039994
-6.17054e-05
0.0399969
-5.41386e-05
0.039993
-4.502e-05
0.0400202
-5.82711e-05
0.0399531
-5.5715e-05
0.039953
-4.71965e-05
0.0399484
-3.25816e-05
0.0399435
6.20417e-06
0.0399523
-8.62072e-06
0.0399792
-7.29232e-06
0.0399268
8.14191e-06
0.0399009
2.75418e-05
0.0398901
4.86615e-05
0.0398828
7.13666e-05
0.0398765
9.46463e-05
0.0398736
0.000118638
0.0398739
0.000141019
0.0398919
0.000158783
0.0399451
0.000179577
0.0399015
0.00020027
0.0398938
0.000218682
0.0399028
0.000235088
0.0399148
0.000249382
0.0399284
0.000260008
0.0399437
0.000265693
0.0399589
0.000272464
0.0399721
0.000274397
0.0399892
0.000271658
0.0400036
0.000270447
0.0400153
0.000264987
0.04003
0.000255515
0.0400416
0.000248276
0.0400501
0.000235503
0.0400634
0.000211401
0.0400857
0.000174282
0.0401247
0.000178111
0.0401049
0.000183149
0.0400881
0.000169567
0.0400827
0.000153473
0.0400844
0.00013696
0.0400875
0.000120139
0.0400899
0.00010306
0.0400899
8.57883e-05
0.0400935
7.03796e-05
0.0400927
5.28627e-05
0.0400936
3.52733e-05
0.0400962
1.76401e-05
0.0400947
0.0400948
-8.99293e-06
0.0400353
-1.79065e-05
0.0400347
-2.67111e-05
0.0400337
-3.53473e-05
0.0400322
-4.17471e-05
0.0400301
-4.98398e-05
0.0400275
-5.75377e-05
0.0400261
-6.47418e-05
0.0400201
-7.13406e-05
0.0400174
-7.72033e-05
0.0400118
-8.01797e-05
0.0400033
-8.41213e-05
0.039998
-7.88351e-05
0.0399916
-7.61651e-05
0.0399903
-4.1908e-05
0.0399859
-6.55943e-05
0.0399767
-7.12991e-05
0.0399587
-6.67794e-05
0.0399439
-5.58379e-05
0.0399325
-3.43114e-05
0.0399308
-3.4001e-05
0.0399789
-2.30825e-05
0.0399159
-3.5837e-06
0.0398814
1.83453e-05
0.0398682
4.24274e-05
0.0398587
6.82717e-05
0.0398507
9.54022e-05
0.0398465
0.000123032
0.0398463
0.000149549
0.0398654
0.000171225
0.0399234
0.000195755
0.039877
0.00021967
0.0398698
0.000241526
0.039881
0.000260269
0.0398961
0.00027462
0.0399141
0.000288739
0.0399296
0.000297387
0.0399502
0.000300613
0.0399689
0.000304557
0.0399852
0.000303438
0.0400047
0.000297514
0.0400212
0.000293074
0.0400344
0.000284424
0.0400502
0.000273824
0.0400607
0.000255565
0.0400817
0.000229933
0.0401113
0.000215122
0.0401395
0.000217338
0.0401027
0.000202725
0.0401027
0.00018548
0.0400999
0.000167725
0.0401022
0.000149572
0.0401056
0.000133119
0.0401064
0.000112423
0.0401106
9.55633e-05
0.0401103
7.45667e-05
0.0401137
5.54868e-05
0.0401127
3.83522e-05
0.0401134
1.91753e-05
0.0401138
0.040114
-1.02703e-05
0.0400456
-1.84567e-05
0.0400429
-2.8549e-05
0.0400438
-3.84858e-05
0.0400421
-4.82044e-05
0.0400398
-5.7632e-05
0.0400369
-6.66819e-05
0.0400352
-7.52517e-05
0.0400287
-8.32236e-05
0.0400253
-8.84547e-05
0.040017
-9.67877e-05
0.0400117
-0.000102036
0.0400032
-0.00010399
0.0399936
-9.64303e-05
0.0399828
-9.3123e-05
0.0399826
-9.56573e-05
0.0399793
-9.394e-05
0.039957
-8.76588e-05
0.0399376
-7.85563e-05
0.0399234
-6.64204e-05
0.0399187
-5.70281e-05
0.0399695
-4.04791e-05
0.0398993
-1.87722e-05
0.0398597
5.93512e-06
0.0398435
3.33354e-05
0.0398313
6.2986e-05
0.0398211
9.45e-05
0.0398149
0.000126602
0.0398142
0.000157503
0.0398345
0.00018375
0.0398972
0.000212614
0.0398481
0.000240694
0.0398418
0.000265851
0.0398558
0.000287508
0.0398744
0.000306098
0.0398955
0.000317821
0.0399178
0.000329423
0.0399386
0.000335017
0.0399633
0.000334814
0.0399854
0.000335109
0.0400044
0.000330263
0.0400261
0.000322603
0.0400421
0.000312511
0.0400603
0.000294337
0.0400789
0.000256429
0.0401196
0.000227141
0.0401406
0.00024651
0.0401202
0.000236875
0.0401123
0.000218492
0.0401211
0.00020149
0.0401169
0.00018202
0.0401216
0.000162172
0.0401255
0.000142052
0.0401265
0.00012173
0.0401309
0.000101264
0.0401308
8.27049e-05
0.0401322
6.20712e-05
0.0401333
4.13917e-05
0.0401341
2.06908e-05
0.0401345
0.0401347
-1.16401e-05
0.0400572
-2.32017e-05
0.0400545
-3.46799e-05
0.0400553
-4.60252e-05
0.0400535
-5.71797e-05
0.040051
-6.80742e-05
0.0400478
-7.66215e-05
0.0400437
-8.67243e-05
0.0400388
-9.42499e-05
0.0400329
-0.00010507
0.0400278
-0.000110986
0.0400176
-0.000117797
0.04001
-0.000123282
0.0399991
-0.000127151
0.0399866
-0.00012111
0.0399766
-0.000120793
0.039979
-0.000117939
0.0399541
-0.00011219
0.0399319
-0.000103191
0.0399144
-9.06346e-05
0.0399061
-7.82434e-05
0.0399571
-6.20238e-05
0.0398831
-3.79675e-05
0.0398357
-1.02043e-05
0.0398157
2.09357e-05
0.0398001
5.49369e-05
0.0397871
9.11202e-05
0.0397788
0.000128631
0.0397767
0.000164944
0.0397982
0.000196551
0.0398656
0.000230524
0.0398141
0.000263083
0.0398092
0.000292246
0.0398267
0.000317212
0.0398495
0.000338489
0.0398742
0.000353883
0.0399024
0.000362392
0.0399301
0.000370187
0.0399555
0.000371595
0.039984
0.000369038
0.040007
0.000362909
0.0400322
0.000353743
0.0400512
0.000339926
0.0400742
0.000307925
0.0401109
0.00026424
0.0401633
0.000276913
0.0401279
0.000274257
0.0401228
0.00025472
0.0401319
0.000238455
0.0401374
0.000215592
0.0401398
0.000196315
0.0401409
0.000174733
0.040147
0.00015292
0.0401483
0.000132959
0.0401509
0.00010888
0.0401549
8.67451e-05
0.0401544
6.45717e-05
0.0401555
4.43855e-05
0.0401542
2.21805e-05
0.0401567
0.0401569
-1.10902e-05
0.0400683
-2.61154e-05
0.0400695
-3.90741e-05
0.0400683
-4.99266e-05
0.0400643
-6.26323e-05
0.0400637
-7.51208e-05
0.0400603
-8.73247e-05
0.0400559
-9.91321e-05
0.0400506
-0.000110422
0.0400441
-0.000119039
0.0400364
-0.000130799
0.0400293
-0.000139471
0.0400187
-0.00014479
0.0400044
-0.000150437
0.0399923
-0.000152078
0.0399782
-0.000147266
0.0399741
-0.000147649
0.0399545
-0.000140784
0.039925
-0.000132208
0.0399059
-0.000117513
0.0398914
-8.8343e-05
0.039928
-8.4398e-05
0.0398791
-6.18365e-05
0.0398131
-3.07109e-05
0.0397846
4.65374e-06
0.0397648
4.36744e-05
0.039748
8.5533e-05
0.0397369
0.000129016
0.0397332
0.000171925
0.0397553
0.000209953
0.0398276
0.000249998
0.0397741
0.000288034
0.0397712
0.000322105
0.0397926
0.000350805
0.0398208
0.000372619
0.0398524
0.000391719
0.0398833
0.000402991
0.0399188
0.00040873
0.0399498
0.000409423
0.0399833
0.000405584
0.0400108
0.000397823
0.0400399
0.000384719
0.0400643
0.000366829
0.040092
0.00033469
0.040143
0.000326772
0.0401712
0.000315144
0.0401395
0.000296449
0.0401415
0.000272925
0.0401554
0.000254551
0.0401557
0.000233743
0.0401606
0.000210589
0.0401641
0.000187207
0.0401704
0.000163671
0.0401718
0.000140037
0.0401745
0.000118379
0.0401765
9.46876e-05
0.0401781
7.09958e-05
0.0401792
4.53026e-05
0.0401799
2.36363e-05
0.0401784
0.0401805
-1.46219e-05
0.040083
-2.91799e-05
0.0400841
-4.16981e-05
0.0400808
-5.8164e-05
0.0400808
-7.05233e-05
0.0400761
-8.47383e-05
0.0400745
-9.87351e-05
0.0400699
-0.000112419
0.0400643
-0.00012567
0.0400574
-0.000138323
0.0400491
-0.000148201
0.0400392
-0.000159044
0.0400295
-0.000168554
0.0400139
-0.000176403
0.0400001
-0.000182138
0.039984
-0.000185297
0.0399773
-0.000177404
0.0399466
-0.000175878
0.0399235
-0.000164175
0.0398941
-0.000143761
0.039871
-8.42137e-05
0.0398684
-9.84754e-05
0.0398934
-8.92147e-05
0.0398039
-5.6383e-05
0.0397518
-1.62375e-05
0.0397246
2.85873e-05
0.0397032
7.71345e-05
0.0396884
0.000128141
0.0396822
0.000178548
0.0397049
0.000224265
0.0397819
0.000271607
0.0397267
0.000316356
0.0397264
0.000355743
0.0397532
0.00038872
0.0397878
0.000415495
0.0398256
0.000432292
0.0398665
0.000446074
0.0399051
0.000449373
0.0399465
0.00045081
0.0399819
0.000443152
0.0400185
0.000435242
0.0400479
0.000415743
0.0400838
0.000367417
0.0401404
0.000338897
0.0401715
0.000354169
0.0401559
0.00034408
0.0401496
0.000320973
0.0401646
0.000297156
0.0401792
0.000272647
0.0401803
0.000249811
0.0401834
0.000222734
0.0401911
0.000199526
0.0401936
0.000174246
0.0401971
0.000148955
0.0401998
0.000123688
0.0402018
9.84611e-05
0.0402033
7.5292e-05
0.0402023
5.01542e-05
0.0402051
2.50495e-05
0.0402035
0.0402056
-1.62093e-05
0.0400992
-3.23667e-05
0.0401002
-4.8523e-05
0.0400969
-6.26652e-05
0.040095
-8.0788e-05
0.0400942
-9.48357e-05
0.0400885
-0.000110768
0.0400859
-0.000126498
0.04008
-0.000141912
0.0400728
-0.000156859
0.040064
-0.000171138
0.0400535
-0.000182491
0.0400409
-0.000196607
0.040028
-0.000205087
0.0400086
-0.000213454
0.0399923
-0.000219121
0.039983
-0.000221522
0.039949
-0.000211963
0.0399139
-0.000205674
0.0398879
-0.000191917
0.0398572
-0.000160036
0.0398365
-0.000149022
0.0398824
-0.000127113
0.0397819
-8.82562e-05
0.0397129
-4.26884e-05
0.0396791
8.87911e-06
0.0396516
6.53367e-05
0.0396319
0.000124964
0.0396226
0.000184889
0.0396449
0.00023996
0.0397268
0.000296123
0.0396706
0.000348751
0.0396738
0.000394411
0.0397075
0.000432467
0.0397497
0.000462425
0.0397956
0.000482757
0.0398462
0.000494664
0.0398931
0.000498837
0.0399423
0.000496345
0.0399844
0.000488231
0.0400266
0.000471468
0.0400646
0.000436991
0.0401183
0.000385869
0.0401915
0.000396064
0.0401613
0.000392354
0.0401596
0.000369531
0.0401725
0.000341864
0.0401923
0.000317505
0.0402036
0.000292753
0.040205
0.000263767
0.0402124
0.000238697
0.0402162
0.000211606
0.0402207
0.000184567
0.0402242
0.000157618
0.0402268
0.000132789
0.0402266
0.00010606
0.04023
7.74219e-05
0.040231
5.28907e-05
0.0402296
2.43959e-05
0.040232
0.04023
-1.78373e-05
0.040117
-3.36323e-05
0.040116
-5.34816e-05
0.0401168
-7.1378e-05
0.0401128
-8.73232e-05
0.0401101
-0.000107319
0.0401085
-0.000123302
0.0401018
-0.000141243
0.0400979
-0.000157014
0.0400886
-0.000174493
0.0400815
-0.00019147
0.0400705
-0.000207716
0.0400571
-0.000222865
0.0400432
-0.0002365
0.0400222
-0.000248083
0.0400039
-0.00025495
0.0399898
-0.000260385
0.0399545
-0.000263538
0.0399171
-0.000253424
0.0398777
-0.000241067
0.0398449
-0.000219423
0.0398149
-0.000179594
0.0398426
-0.000164895
0.0397673
-0.000127591
0.0396756
-7.59112e-05
0.0396274
-1.65072e-05
0.0395922
4.93695e-05
0.039566
0.000119851
0.0395521
0.000190985
0.0395738
0.000257601
0.0396602
0.000324614
0.0396036
0.000386557
0.0396118
0.00044032
0.0396538
0.000483952
0.0397061
0.000515073
0.0397645
0.000538631
0.0398227
0.000547897
0.0398839
0.000552124
0.0399381
0.000542726
0.0399938
0.000525191
0.0400441
0.000502714
0.0400871
0.000472594
0.0401484
0.000459555
0.0402045
0.000446139
0.0401747
0.000423281
0.0401825
0.000391433
0.0402043
0.000361009
0.0402227
0.00033789
0.0402267
0.000308663
0.0402342
0.000281465
0.0402396
0.000252329
0.0402453
0.000223341
0.0402497
0.000194533
0.040253
0.000167967
0.0402533
0.000137574
0.040257
0.000111401
0.0402562
8.33815e-05
0.040259
5.54952e-05
0.0402575
2.76986e-05
0.0402598
0.0402577
-1.94842e-05
0.0401365
-3.89515e-05
0.0401355
-5.65037e-05
0.0401343
-7.6191e-05
0.0401325
-9.80402e-05
0.040132
-0.000116041
0.0401265
-0.000136204
0.040122
-0.000156486
0.0401182
-0.000176811
0.0401089
-0.000197063
0.0401018
-0.000217062
0.0400905
-0.000236558
0.0400766
-0.000253208
0.0400598
-0.000270553
0.0400396
-0.000284046
0.0400174
-0.000294959
0.0400008
-0.000306271
0.0399658
-0.000311091
0.0399219
-0.000310203
0.0398769
-0.000294217
0.0398289
-0.000267896
0.0397886
-0.000190075
0.0397647
-0.000198342
0.0397755
-0.000174181
0.0396515
-0.000117599
0.0395708
-4.90924e-05
0.0395237
2.82264e-05
0.0394887
0.000111344
0.039469
0.000196807
0.0394883
0.00027779
0.0395792
0.000358262
0.0395231
0.000432095
0.039538
0.00049488
0.039591
0.000544699
0.0396563
0.000581417
0.0397278
0.000603613
0.0398005
0.000613216
0.0398743
0.000608115
0.0399432
0.000584594
0.0400173
0.000544481
0.0400843
0.000503497
0.0401281
0.000480795
0.0401711
0.000500934
0.0401844
0.000481352
0.0401943
0.000450756
0.0402131
0.000417529
0.0402375
0.000387843
0.0402524
0.000357971
0.0402566
0.000328241
0.040264
0.000296723
0.0402711
0.000265493
0.0402766
0.0002346
0.0402806
0.000206074
0.0402815
0.000173868
0.0402855
0.000146013
0.0402849
0.000114417
0.0402878
8.70907e-05
0.0402863
5.59214e-05
0.0402887
2.89079e-05
0.0402868
0.0402866
-2.11236e-05
0.0401576
-4.22542e-05
0.0401566
-6.35294e-05
0.0401556
-8.50253e-05
0.040154
-0.000104781
0.0401517
-0.000126857
0.0401486
-0.000149269
0.0401444
-0.000172007
0.040141
-0.000195054
0.0401319
-0.000218302
0.040125
-0.000239604
0.0401118
-0.000262735
0.0400998
-0.000285402
0.0400825
-0.000307124
0.0400613
-0.000325333
0.0400356
-0.00033528
0.0400107
-0.00035347
0.039984
-0.000367164
0.0399356
-0.000370756
0.0398804
-0.000366478
0.0398246
-0.000342451
0.0397646
-0.000304707
0.039727
-0.000278922
0.0397497
-0.000233515
0.0396061
-0.000169377
0.0395067
-9.05828e-05
0.0394449
2.14563e-07
0.0393979
9.97913e-05
0.0393694
0.000202842
0.0393853
0.000302438
0.0394796
0.000399709
0.0394258
0.000487681
0.03945
0.000561772
0.0395169
0.000618966
0.0395991
0.000658775
0.039688
0.000678598
0.0397806
0.00068235
0.0398705
0.000659986
0.0399656
0.000630379
0.0400469
0.000610091
0.0401045
0.000569203
0.040169
0.000560497
0.0401799
0.000547426
0.0401975
0.0005173
0.0402245
0.00047856
0.0402518
0.000439645
0.0402764
0.00041043
0.0402816
0.000377579
0.0402894
0.000343207
0.0402983
0.000309331
0.040305
0.000278013
0.0403079
0.00024522
0.0403134
0.00021299
0.0403137
0.000181249
0.0403173
0.000149962
0.0403162
0.000121082
0.0403167
8.84925e-05
0.0403189
6.018e-05
0.040317
3.00183e-05
0.040317
0.0403166
-2.27261e-05
0.0401803
-4.54866e-05
0.0401794
-6.84571e-05
0.0401786
-8.97282e-05
0.0401753
-0.00011341
0.0401754
-0.000137572
0.0401728
-0.000164288
0.0401711
-0.00018757
0.0401643
-0.000213451
0.0401578
-0.000237878
0.0401494
-0.000266776
0.0401407
-0.000291934
0.0401249
-0.000319071
0.0401096
-0.000345799
0.040088
-0.000371469
0.0400613
-0.000391287
0.0400305
-0.000413878
0.0400065
-0.000430028
0.0399517
-0.00043995
0.0398904
-0.000441263
0.0398259
-0.000431308
0.0397546
-0.000397298
0.039693
-0.000350321
0.0397028
-0.000307716
0.0395635
-0.000235991
0.0394349
-0.000145225
0.0393542
-3.87036e-05
0.0392914
8.06741e-05
0.03925
0.000207774
0.0392582
0.000331609
0.0393557
0.00044833
0.0393091
0.000554589
0.0393438
0.000642029
0.0394295
0.000707298
0.0395338
0.000748481
0.0396468
0.000768698
0.0397604
0.000750908
0.0398883
0.00071853
0.0399979
0.000698504
0.0400669
0.000679826
0.0401232
0.000653138
0.0401957
0.000625631
0.0402074
0.000588825
0.0402343
0.000549496
0.0402638
0.000508124
0.0402932
0.000470983
0.0403136
0.000434309
0.0403183
0.000398427
0.0403253
0.000361349
0.0403354
0.000325101
0.0403413
0.000289684
0.0403433
0.000255061
0.040348
0.000221183
0.0403476
0.000189995
0.0403485
0.000155366
0.0403508
0.000123259
0.0403488
9.35737e-05
0.0403486
6.21909e-05
0.0403484
3.10111e-05
0.0403482
0.0403476
-2.42588e-05
0.0402046
-4.65711e-05
0.0402017
-7.11722e-05
0.0402032
-9.8197e-05
0.0402023
-0.000123755
0.040201
-0.000149979
0.040199
-0.000174969
0.0401961
-0.000202838
0.0401921
-0.00023163
0.0401866
-0.000261406
0.0401792
-0.000290096
0.0401694
-0.000323627
0.0401585
-0.000353751
0.0401397
-0.000386107
0.0401204
-0.000418173
0.0400934
-0.000447065
0.0400594
-0.000471616
0.0400311
-0.000500074
0.0399802
-0.000518407