/*--------------------------------*- C++ -*----------------------------------*\
  =========                 |
  \\      /  F ield         | OpenFOAM: The Open Source CFD Toolbox
   \\    /   O peration     | Website:  https://openfoam.org
    \\  /    A nd           | Version:  12
     \\/     M anipulation  |
\*---------------------------------------------------------------------------*/
FoamFile
{
    format      ascii;
    class       volVectorField;
    location    "460";
    object      U;
}
// * * * * * * * * * * * * * * * * * * * * * * * * * * * * * * * * * * * * * //

dimensions      [0 1 -1 0 0 0 0];

internalField   nonuniform List<vector> 
16227
(
(2 -3.17898e-06 -1.00464e-22)
(2 -9.43655e-06 1.00773e-22)
(2 -1.54725e-05 -1.00774e-22)
(2 -2.11551e-05 -1.01026e-22)
(2 -2.63371e-05 1.01027e-22)
(2 -3.0868e-05 1.01401e-22)
(2 -3.45996e-05 2.45368e-25)
(2 -3.73769e-05 -2.03507e-22)
(2 -3.90427e-05 3.06213e-22)
(2 -3.94352e-05 -2.04322e-22)
(2 -3.83957e-05 0)
(2 -3.57711e-05 2.05813e-22)
(2 -3.14378e-05 0)
(2 -2.52679e-05 0)
(2 -1.71325e-05 0)
(2 -6.93869e-06 0)
(2 5.38045e-06 0)
(2 1.98596e-05 0)
(2 3.64946e-05 0)
(2 5.52364e-05 0)
(2 7.59835e-05 -2.0611e-22)
(2 9.85809e-05 1.02123e-24)
(2 0.000122821 2.05086e-22)
(2 0.000148444 0)
(2 0.000175135 -2.00185e-22)
(2 0.000202533 2.00184e-22)
(2 0.000230241 0)
(2 0.000257818 9.69907e-23)
(2 0.00028483 0)
(2 0.00031084 0)
(2 0.000335387 0)
(2 0.000358071 0)
(2 0.000378502 0)
(2 0.000396365 1.68036e-22)
(2 0.000411383 -4.89398e-24)
(2 0.000423359 -1.63139e-22)
(2 0.000432145 0)
(2 0.000437669 1.47685e-22)
(2 0.000439921 -5.27557e-24)
(2 0.000438947 -1.4241e-22)
(2 0.000434847 0)
(2 0.000427762 0)
(2 0.000417868 0)
(2 0.000405366 0)
(2 0.000390472 0)
(2 0.000373412 0)
(2 0.000354411 0)
(2 0.000333707 0)
(2 0.000311501 0)
(2 0.000287978 0)
(2 0.000263339 0)
(2 0.000237751 0)
(2 0.0002114 0)
(2 0.000184389 0)
(2 0.000156837 -3.9628e-23)
(2 0.000128841 3.96293e-23)
(2 0.000100517 0)
(2 7.1969e-05 0)
(2 4.32687e-05 0)
(2 1.4441e-05 3.73313e-23)
(2.00002 -1.46826e-05 8.84765e-26)
(2.00002 -4.36944e-05 0)
(2.00001 -7.19462e-05 0)
(2.00001 -9.89409e-05 0)
(2.00001 -0.000124136 -1.70875e-22)
(2.00001 -0.000147007 0)
(2.00001 -0.000167009 0)
(2.00001 -0.000183585 -5.16516e-22)
(2 -0.000196152 3.44524e-22)
(2 -0.000204136 -6.92973e-22)
(2 -0.000206949 2.77666e-21)
(1.99999 -0.000203994 -1.73868e-21)
(1.99999 -0.000194772 8.71614e-22)
(1.99998 -0.000178816 0)
(1.99998 -0.000155622 0)
(1.99997 -0.000124814 0)
(1.99997 -8.60947e-05 0)
(1.99996 -3.92937e-05 0)
(1.99996 1.56337e-05 0)
(1.99995 7.85697e-05 0)
(1.99995 0.000149198 0)
(1.99995 0.000227014 0)
(1.99994 0.00031132 0)
(1.99994 0.000401221 0)
(1.99994 0.000495616 0)
(1.99994 0.000593226 -3.35007e-22)
(1.99994 0.000692623 3.34989e-22)
(1.99994 0.000792248 -1.63971e-22)
(1.99994 0.000890486 0)
(1.99994 0.000985725 0)
(1.99994 0.00107632 0)
(1.99995 0.00116072 0)
(1.99995 0.00123751 0)
(1.99996 0.00130548 0)
(1.99997 0.00136359 0)
(1.99998 0.00141106 -2.67369e-22)
(1.99998 0.00144729 8.77873e-24)
(1.99999 0.00147196 8.90691e-24)
(2 0.001485 8.96643e-24)
(2.00001 0.00148652 2.40703e-22)
(2.00001 0.00147684 2.22861e-22)
(2.00002 0.00145644 -2.22862e-22)
(2.00003 0.00142592 0)
(2.00003 0.00138599 0)
(2.00004 0.00133741 0)
(2.00004 0.00128094 0)
(2.00005 0.00121742 0)
(2.00005 0.00114765 0)
(2.00005 0.00107238 0)
(2.00006 0.000992332 0)
(2.00006 0.000908187 1.49814e-22)
(2.00006 0.000820541 -2.96633e-22)
(2.00006 0.000730032 -2.81203e-22)
(2.00006 0.000637111 2.8123e-22)
(2.00006 0.000542121 -2.67198e-22)
(2.00007 0.00044551 3.98129e-22)
(2.00007 0.000347693 -1.30984e-22)
(2.00007 0.00024899 6.373e-23)
(2.00007 0.000149701 -6.37331e-23)
(2.00007 4.99556e-05 -3.4844e-25)
(2.00006 -2.8549e-05 1.69547e-22)
(2.00006 -8.51412e-05 0)
(2.00005 -0.000140403 0)
(2.00005 -0.000193484 0)
(2.00005 -0.000243434 1.70871e-22)
(2.00004 -0.000289328 -3.42754e-22)
(2.00004 -0.000330231 -8.76788e-25)
(2.00003 -0.000365148 5.15528e-22)
(2.00002 -0.000393057 1.72461e-22)
(2.00001 -0.000412944 6.93118e-22)
(2 -0.000423783 -6.92015e-22)
(1.99999 -0.000424461 -1.39102e-21)
(1.99998 -0.000414039 1.74728e-22)
(1.99996 -0.000391696 0)
(1.99995 -0.000356482 1.75563e-22)
(1.99993 -0.000307688 0)
(1.99992 -0.00024474 0)
(1.9999 -0.000167268 0)
(1.99988 -7.51378e-05 -7.03211e-22)
(1.99987 3.15316e-05 7.0311e-22)
(1.99985 0.000152242 -3.4966e-22)
(1.99984 0.000286155 3.4964e-22)
(1.99983 0.000432109 0)
(1.99982 0.000588574 -3.43104e-22)
(1.99981 0.000753632 3.26385e-24)
(1.99981 0.000925048 3.39788e-22)
(1.9998 0.00110031 0)
(1.9998 0.00127664 0)
(1.99981 0.00145119 0)
(1.99982 0.00162105 0)
(1.99983 0.0017833 1.51782e-22)
(1.99984 0.00193508 -3.07764e-22)
(1.99986 0.00207385 0)
(1.99988 0.0021974 0)
(1.9999 0.0023038 2.76276e-22)
(1.99992 0.00239162 -2.76255e-22)
(1.99994 0.00245978 0)
(1.99996 0.00250764 0)
(1.99999 0.00253503 0)
(2.00001 0.0025421 0)
(2.00003 0.00252941 0)
(2.00005 0.00249777 0)
(2.00007 0.00244825 -1.04506e-22)
(2.00009 0.00238208 0)
(2.0001 0.00230057 0)
(2.00012 0.00220508 0)
(2.00013 0.00209711 -8.52951e-23)
(2.00014 0.00197805 1.73607e-22)
(2.00015 0.0018492 0)
(2.00016 0.00171189 7.82594e-23)
(2.00017 0.0015673 0)
(2.00018 0.00141653 1.46761e-22)
(2.00018 0.00126066 2.79368e-22)
(2.00019 0.00110041 6.08302e-23)
(2.00019 0.000936483 -2.7176e-22)
(2.00019 0.000769724 1.29985e-22)
(2.00019 0.000600817 -1.30035e-22)
(2.0002 0.000430287 0)
(2.0002 0.000258704 0)
(2.0002 8.63477e-05 -6.26802e-23)
(2.00013 -4.22992e-05 0)
(2.00012 -0.000126294 0)
(2.00012 -0.000208376 -1.69968e-22)
(2.00011 -0.000287387 0)
(2.00011 -0.000361968 -1.70837e-22)
(2.0001 -0.000430825 1.70833e-22)
(2.00008 -0.000492611 0)
(2.00007 -0.000545922 -5.16842e-22)
(2.00005 -0.000589279 5.16253e-22)
(2.00003 -0.000621211 0)
(2.00001 -0.000640272 -6.95507e-22)
(1.99998 -0.00064479 -2.09081e-21)
(1.99996 -0.000633359 -3.49232e-22)
(1.99993 -0.000604783 0)
(1.9999 -0.000557625 -1.75552e-22)
(1.99987 -0.000490809 0)
(1.99983 -0.000403418 0)
(1.9998 -0.000294871 1.41166e-21)
(1.99976 -0.000164908 -1.4114e-21)
(1.99973 -1.3518e-05 0)
(1.9997 0.000158688 -3.50912e-22)
(1.99967 0.000350429 1.54123e-24)
(1.99965 0.000560139 2.06584e-24)
(1.99962 0.000785659 3.47263e-22)
(1.99961 0.00102425 0)
(1.9996 0.00127268 0)
(1.99959 0.00152728 0)
(1.99959 0.00178402 1.63955e-22)
(1.9996 0.00203867 -8.02716e-25)
(1.99961 0.00228699 1.57871e-22)
(1.99964 0.00252458 -1.98835e-24)
(1.99966 0.00274727 0)
(1.9997 0.00295125 0)
(1.99973 0.00313319 0)
(1.99978 0.00329029 -2.76898e-22)
(1.99982 0.00342033 8.86415e-24)
(1.99987 0.00352173 9.06745e-24)
(1.99992 0.00359359 9.19665e-24)
(1.99996 0.00363559 4.9015e-22)
(2.00001 0.00364797 -2.4043e-22)
(2.00006 0.00363154 0)
(2.0001 0.00358753 -1.08589e-22)
(2.00014 0.0035175 1.04452e-22)
(2.00018 0.00342321 0)
(2.00021 0.00330664 0)
(2.00024 0.00316985 0)
(2.00027 0.00301492 -8.8256e-23)
(2.00029 0.00284393 0)
(2.00031 0.0026588 0)
(2.00033 0.00246142 -1.55641e-22)
(2.00035 0.00225355 -2.9483e-22)
(2.00036 0.00203676 5.79785e-22)
(2.00037 0.0018127 -2.85068e-22)
(2.00038 0.00158215 -3.37057e-22)
(2.00039 0.00134642 2.68634e-22)
(2.00039 0.00110666 0)
(2.0004 0.000863838 0)
(2.0004 0.000618633 6.21721e-23)
(2.0004 0.000371926 0)
(2.00041 0.000124152 0)
(2.00022 -5.60667e-05 0)
(2.00022 -0.000167456 0)
(2.00021 -0.000276375 3.16798e-25)
(2.0002 -0.000381381 0)
(2.00019 -0.000480745 0)
(2.00017 -0.0005728 -3.41707e-22)
(2.00015 -0.0006558 -5.15067e-22)
(2.00012 -0.000727946 5.14169e-22)
(2.00009 -0.000787313 0)
(2.00006 -0.000831934 0)
(2.00002 -0.000859946 -6.95727e-22)
(1.99998 -0.000869108 4.17925e-21)
(1.99993 -0.000857498 -3.48587e-22)
(1.99989 -0.000823459 3.50297e-22)
(1.99983 -0.000765092 0)
(1.99978 -0.000680881 0)
(1.99972 -0.000569478 7.07881e-22)
(1.99966 -0.00043006 2.12909e-21)
(1.9996 -0.000262124 -1.06155e-21)
(1.99954 -6.5404e-05 0)
(1.99949 0.000159376 0)
(1.99944 0.000410455 0)
(1.99939 0.000686001 0)
(1.99935 0.000983185 -3.46801e-22)
(1.99932 0.00129844 3.1479e-24)
(1.9993 0.00162748 3.79096e-24)
(1.99929 0.00196542 3.39708e-22)
(1.99929 0.00230685 1.67123e-22)
(1.99931 0.00264608 -9.77502e-25)
(1.99933 0.00297737 -1.62026e-22)
(1.99937 0.00329472 4.68645e-22)
(1.99941 0.00359246 -3.108e-22)
(1.99947 0.00386541 -2.95185e-22)
(1.99954 0.00410909 2.95139e-22)
(1.99961 0.00431961 2.77797e-22)
(1.99969 0.00449399 -2.77759e-22)
(1.99977 0.0046301 0)
(1.99985 0.00472674 0)
(1.99993 0.00478354 -2.40294e-22)
(2.00001 0.00480082 2.40281e-22)
(2.00009 0.00477972 2.21411e-22)
(2.00017 0.00472196 -1.12872e-22)
(2.00024 0.00462965 0)
(2.0003 0.00450517 0)
(2.00036 0.00435127 0)
(2.00041 0.00417068 0)
(2.00046 0.0039662 0)
(2.0005 0.00374062 0)
(2.00054 0.00349652 -7.95198e-23)
(2.00057 0.00323639 -3.77087e-22)
(2.0006 0.00296258 3.01844e-22)
(2.00062 0.00267728 2.80802e-22)
(2.00064 0.00238237 -4.17591e-22)
(2.00065 0.00207899 2.6425e-22)
(2.00067 0.00176902 -2.64276e-22)
(2.00068 0.00145391 0)
(2.00068 0.00113482 0)
(2.00069 0.000812629 -1.26319e-24)
(2.00069 0.00048851 0)
(2.00069 0.000163052 0)
(2.00035 -7.07445e-05 -1.68379e-22)
(2.00034 -0.000211259 0)
(2.00033 -0.000348796 3.99235e-26)
(2.00032 -0.000481646 1.69596e-22)
(2.0003 -0.000607737 0)
(2.00027 -0.00072504 3.09302e-25)
(2.00024 -0.00083143 -3.42638e-22)
(2.0002 -0.0009247 3.42578e-22)
(2.00015 -0.0010025 0)
(2.0001 -0.00106234 0)
(2.00004 -0.00110191 3.47269e-22)
(1.99998 -0.00111848 1.39479e-21)
(1.99991 -0.00110939 -6.99451e-22)
(1.99983 -0.00107242 3.51802e-22)
(1.99975 -0.00100535 0)
(1.99967 -0.000906041 -3.54438e-22)
(1.99958 -0.000772652 3.54599e-22)
(1.99949 -0.000603955 3.70386e-24)
(1.9994 -0.000399096 -1.60002e-21)
(1.99931 -0.000157484 -3.55536e-22)
(1.99922 0.000120138 3.57506e-22)
(1.99914 0.000431514 1.21045e-24)
(1.99907 0.000774698 3.53834e-22)
(1.99901 0.00114615 0)
(1.99896 0.00154147 0)
(1.99893 0.00195526 0)
(1.99891 0.00238134 0)
(1.99891 0.00281279 -1.67125e-22)
(1.99893 0.00324225 0)
(1.99896 0.00366232 0)
(1.99902 0.00406527 4.73781e-22)
(1.99909 0.00444359 -3.13146e-22)
(1.99918 0.00479067 0)
(1.99928 0.00510064 0)
(1.99939 0.00536851 0)
(1.99951 0.00559044 0)
(1.99964 0.00576368 2.59799e-22)
(1.99976 0.00588671 -9.7928e-24)
(1.99989 0.00595918 -3.72468e-22)
(2.00002 0.00598162 0)
(2.00014 0.00595553 0)
(2.00025 0.0058832 2.11094e-22)
(2.00036 0.00576737 -3.13945e-22)
(2.00046 0.00561123 0)
(2.00055 0.00541828 0)
(2.00063 0.00519205 0)
(2.0007 0.00493614 0)
(2.00077 0.00465409 0)
(2.00082 0.00434915 2.34054e-22)
(2.00087 0.00402449 5.91448e-22)
(2.00091 0.0036831 -5.93484e-22)
(2.00095 0.00332779 2.75458e-22)
(2.00097 0.00296036 -1.38836e-22)
(2.001 0.00258278 0)
(2.00102 0.00219738 6.29512e-23)
(2.00103 0.00180577 0)
(2.00104 0.00140926 0)
(2.00105 0.00100905 -6.08828e-23)
(2.00106 0.000606513 0)
(2.00106 0.000202387 5.82263e-23)
(2.00051 -8.69132e-05 5.22811e-25)
(2.0005 -0.00025946 0)
(2.00048 -0.000428572 0)
(2.00046 -0.000592305 -1.69029e-22)
(2.00043 -0.000748277 0)
(2.00039 -0.000894101 1.70325e-22)
(2.00035 -0.0010273 -1.71035e-22)
(2.00029 -0.00114526 3.42213e-22)
(2.00023 -0.00124523 0)
(2.00016 -0.00132417 -6.92864e-22)
(2.00008 -0.00137923 3.45664e-22)
(1.99999 -0.00140729 3.75229e-24)
(1.99989 -0.00140482 1.40646e-21)
(1.99978 -0.00136886 -7.04507e-22)
(1.99966 -0.00129684 -1.46863e-24)
(1.99954 -0.00118591 -1.79185e-22)
(1.99942 -0.00103373 3.56946e-21)
(1.99928 -0.000838342 -1.4255e-21)
(1.99915 -0.000598302 -2.32673e-21)
(1.99902 -0.000312891 3.23464e-21)
(1.9989 1.74153e-05 3.61201e-22)
(1.99878 0.000389895 -3.56987e-22)
(1.99868 0.000802643 1.57547e-24)
(1.99858 0.00125137 3.55299e-22)
(1.99851 0.00173085 0)
(1.99846 0.00223452 0)
(1.99843 0.00275473 0)
(1.99843 0.00328287 0)
(1.99845 0.00380974 1.67817e-22)
(1.99851 0.00432606 0)
(1.99858 0.00482198 -4.79348e-22)
(1.99869 0.00528802 0)
(1.99881 0.00571584 2.99317e-22)
(1.99896 0.006098 -2.99238e-22)
(1.99912 0.00642822 2.80484e-22)
(1.99929 0.00670179 -9.86253e-24)
(1.99947 0.00691527 -5.30948e-22)
(1.99966 0.00706684 2.60386e-22)
(1.99984 0.00715621 -1.1741e-22)
(2.00002 0.00718421 2.39864e-22)
(2.00019 0.00715286 1.1207e-22)
(2.00036 0.0070651 0)
(2.00051 0.00692449 1.02787e-22)
(2.00065 0.00673516 0)
(2.00078 0.0065014 0)
(2.0009 0.00622773 8.82561e-23)
(2.001 0.00591857 -8.41232e-23)
(2.00109 0.00557827 0)
(2.00117 0.00521078 9.13077e-22)
(2.00124 0.00482008 5.5596e-22)
(2.0013 0.00440988 -1.16304e-21)
(2.00134 0.00398322 -2.68996e-22)
(2.00138 0.00354212 5.94043e-22)
(2.00142 0.00308959 -2.59954e-22)
(2.00144 0.00262805 -6.29306e-23)
(2.00147 0.00215927 0)
(2.00148 0.00168485 1.17268e-22)
(2.00149 0.00120622 -5.89174e-23)
(2.0015 0.000724923 0)
(2.00151 0.000241827 -1.86447e-24)
(2.00069 -0.000104876 1.67852e-22)
(2.00068 -0.000312999 0)
(2.00067 -0.000517299 0)
(2.00064 -0.000715613 1.68487e-22)
(2.0006 -0.000905301 -4.85319e-25)
(2.00055 -0.00108366 1.69437e-22)
(2.00049 -0.00124786 -1.70094e-22)
(2.00042 -0.00139487 -5.14037e-22)
(2.00033 -0.00152157 3.42812e-22)
(2.00024 -0.00162439 -6.92475e-22)
(2.00013 -0.00169979 -1.77246e-22)
(2.00001 -0.00174427 1.04539e-21)
(1.99987 -0.00175357 -2.80526e-21)
(1.99973 -0.00172364 -1.41452e-21)
(1.99957 -0.00165129 1.41515e-21)
(1.9994 -0.0015332 -1.77963e-22)
(1.99923 -0.00136619 4.31311e-21)
(1.99905 -0.00114747 -7.15749e-22)
(1.99887 -0.000874726 -7.18034e-22)
(1.99869 -0.000547002 -2.15518e-21)
(1.99852 -0.000164295 3.66679e-22)
(1.99836 0.000270268 0)
(1.99821 0.000754866 0)
(1.99808 0.00128457 -3.57255e-22)
(1.99798 0.00185331 2.78373e-24)
(1.9979 0.00245319 3.54307e-22)
(1.99786 0.00307504 0)
(1.99785 0.00370831 3.40808e-22)
(1.99788 0.00434164 -5.08447e-22)
(1.99795 0.00496352 0)
(1.99806 0.0055617 1.54627e-22)
(1.9982 0.00612432 -6.30953e-22)
(1.99837 0.00664102 9.04537e-24)
(1.99857 0.00710262 5.94468e-22)
(1.99879 0.0075013 -1.00324e-23)
(1.99903 0.00783129 -2.82228e-22)
(1.99927 0.00808855 0)
(1.99952 0.008271 2.50404e-22)
(1.99978 0.00837846 -1.07441e-23)
(2.00002 0.0084122 -2.3959e-22)
(2.00026 0.0083749 -2.23545e-22)
(2.00048 0.00827042 0)
(2.00069 0.00810323 0)
(2.00088 0.00787853 -9.60332e-23)
(2.00106 0.00760171 0)
(2.00121 0.00727825 -1.74947e-22)
(2.00135 0.00691354 8.40728e-23)
(2.00148 0.0065128 -1.56988e-22)
(2.00158 0.00608084 -9.045e-22)
(2.00167 0.00562232 -5.66585e-22)
(2.00175 0.00514193 2.92562e-22)
(2.00182 0.00464231 -1.05202e-23)
(2.00187 0.00412661 -3.89514e-22)
(2.00191 0.00359838 1.23877e-22)
(2.00195 0.00305999 0)
(2.00198 0.00251356 0)
(2.002 0.00196091 -2.15549e-24)
(2.00201 0.00140363 0)
(2.00202 0.000843433 0)
(2.00203 0.000281267 -5.63387e-23)
(2.00092 -0.000124863 0)
(2.00091 -0.000372572 0)
(2.00089 -0.000616132 1.67372e-22)
(2.00085 -0.000853233 -1.6842e-22)
(2.0008 -0.001081 0)
(2.00074 -0.00129645 -3.38325e-22)
(2.00066 -0.00149645 1.69316e-22)
(2.00057 -0.00167759 1.70222e-22)
(2.00046 -0.00183629 0)
(2.00034 -0.00196854 0)
(2.0002 -0.00207008 -5.22598e-22)
(2.00004 -0.00213677 3.47093e-22)
(1.99987 -0.0021639 1.40992e-21)
(1.99968 -0.00214599 4.25009e-21)
(1.99947 -0.00207893 0)
(1.99926 -0.00195912 -7.1828e-22)
(1.99903 -0.00178207 -2.87639e-21)
(1.99879 -0.00154412 -7.26794e-22)
(1.99855 -0.00124185 -1.45194e-21)
(1.99831 -0.00087382 3.62833e-22)
(1.99808 -0.000439158 -7.26861e-22)
(1.99786 5.85757e-05 3.03358e-25)
(1.99766 0.000617783 9.90337e-25)
(1.99749 0.00123298 3.63987e-22)
(1.99734 0.00189717 0)
(1.99724 0.00260116 0)
(1.99718 0.00333394 0)
(1.99716 0.00408275 1.75977e-22)
(1.9972 0.00483376 -1.72924e-22)
(1.99729 0.00557283 0)
(1.99742 0.00628477 3.19104e-22)
(1.99761 0.00695486 -3.24001e-22)
(1.99784 0.00757043 0)
(1.9981 0.00812011 0)
(1.99839 0.00859448 4.30194e-22)
(1.99871 0.00898646 -2.84394e-22)
(1.99903 0.00929142 -2.62099e-22)
(1.99937 0.00950705 5.12712e-22)
(1.9997 0.00963347 -2.50615e-22)
(2.00002 0.00967261 0)
(2.00034 0.00962803 3.28422e-22)
(2.00063 0.00950468 -2.16932e-22)
(2.0009 0.00930831 -9.98357e-23)
(2.00115 0.0090453 1.90602e-22)
(2.00138 0.00872231 0)
(2.00159 0.00834596 8.66935e-23)
(2.00177 0.00792273 -1.61134e-22)
(2.00192 0.0074588 1.56883e-22)
(2.00206 0.00695992 -5.54575e-22)
(2.00218 0.0064317 3.2145e-22)
(2.00228 0.00587905 1.38924e-22)
(2.00236 0.00530483 6.31227e-23)
(2.00243 0.00471352 -6.31386e-23)
(2.00249 0.00410859 -6.08083e-23)
(2.00253 0.00349267 1.13544e-22)
(2.00257 0.00286814 -1.41683e-24)
(2.00259 0.00223699 -1.11809e-22)
(2.00261 0.00160096 5.27621e-23)
(2.00262 0.000961817 0)
(2.00263 0.000320621 0)
(2.00119 -0.000147054 0)
(2.00118 -0.00043872 0)
(2.00115 -0.000726019 -3.33847e-22)
(2.0011 -0.00100653 0)
(2.00104 -0.0012772 0)
(2.00096 -0.00153483 6.9357e-25)
(2.00087 -0.00177599 0)
(2.00075 -0.00199691 -1.70607e-22)
(2.00062 -0.00219361 -1.71906e-22)
(2.00047 -0.00236156 1.71636e-22)
(2.00029 -0.00249588 -6.95883e-22)
(2.0001 -0.00259157 6.95909e-22)
(1.99988 -0.00264336 0)
(1.99964 -0.00264455 -4.23659e-21)
(1.99938 -0.00258973 -7.05002e-22)
(1.99911 -0.00247476 7.29924e-22)
(1.99882 -0.00229363 -4.34737e-21)
(1.99851 -0.0020414 1.45806e-21)
(1.9982 -0.00171354 -7.31257e-22)
(1.99789 -0.00130782 0)
(1.99759 -0.000822018 -7.43534e-22)
(1.9973 -0.000260015 0)
(1.99703 0.00037706 -3.6954e-22)
(1.9968 0.0010831 3.69493e-22)
(1.99661 0.00185031 -3.65637e-22)
(1.99646 0.00266796 1.81713e-22)
(1.99638 0.00352306 0)
(1.99635 0.0044003 -1.76036e-22)
(1.99639 0.00528281 5.25376e-22)
(1.9965 0.00615337 1.724e-22)
(1.99667 0.00699317 -3.34977e-22)
(1.99691 0.00778411 -1.54389e-22)
(1.9972 0.00851062 3.19609e-22)
(1.99754 0.00915875 0)
(1.99792 0.00971717 1.41362e-22)
(1.99833 0.0101774 -1.17204e-23)
(1.99875 0.0105342 -1.19621e-23)
(1.99918 0.0107852 -2.63024e-22)
(1.99961 0.010931 2.38847e-22)
(2.00003 0.0109744 -3.54952e-22)
(2.00043 0.0109202 1.10074e-22)
(2.0008 0.0107749 0)
(2.00115 0.0105456 9.97762e-23)
(2.00147 0.0102402 -9.45666e-23)
(2.00176 0.00986694 0)
(2.00201 0.00943373 0)
(2.00224 0.00894824 1.61026e-22)
(2.00244 0.00841773 -5.66754e-24)
(2.00261 0.00784888 -2.96856e-23)
(2.00276 0.00724866 5.48134e-22)
(2.00288 0.00662111 1.31909e-22)
(2.00298 0.00597072 6.04725e-23)
(2.00307 0.00530241 5.82014e-23)
(2.00314 0.00461973 -2.08024e-24)
(2.00319 0.00392557 -5.89061e-23)
(2.00323 0.00322254 0)
(2.00327 0.00251269 0)
(2.00329 0.00179786 -1.0269e-22)
(2.0033 0.00107991 0)
(2.00331 0.000359855 0)
(2.00151 -0.000171576 0)
(2.00149 -0.000511857 0)
(2.00145 -0.000847646 2.36734e-25)
(2.0014 -0.00117651 1.66209e-22)
(2.00133 -0.00149526 0)
(2.00123 -0.00180055 1.68059e-22)
(2.00112 -0.00208872 1.6902e-22)
(2.00098 -0.00235568 1.04558e-24)
(2.00082 -0.00259701 7.82076e-25)
(2.00064 -0.00280776 -1.72469e-22)
(2.00043 -0.00298233 1.72469e-22)
(2.00019 -0.00311477 1.74522e-22)
(1.99992 -0.00319919 -3.5226e-22)
(1.99963 -0.00322781 -2.84434e-21)
(1.99931 -0.00319341 -7.24139e-22)
(1.99896 -0.0030909 2.88603e-21)
(1.9986 -0.00291303 2.18677e-21)
(1.99821 -0.00265267 -1.47007e-21)
(1.99782 -0.00230423 1.48025e-21)
(1.99742 -0.0018643 2.25361e-21)
(1.99704 -0.00132861 3.68805e-22)
(1.99666 -0.000701251 -3.59196e-24)
(1.99632 1.73081e-05 -3.7582e-22)
(1.99601 0.000820547 7.50726e-22)
(1.99576 0.00169978 -3.74752e-22)
(1.99556 0.00264272 1.83912e-22)
(1.99544 0.00363406 0)
(1.9954 0.00465545 1.83296e-22)
(1.99545 0.00568645 1.83777e-22)
(1.99558 0.00670612 -1.76357e-22)
(1.99579 0.00769109 1.64742e-22)
(1.99609 0.00861911 1.63768e-22)
(1.99646 0.00947113 1.52775e-22)
(1.99689 0.01023 -3.13919e-22)
(1.99737 0.0108822 0)
(1.99789 0.0114177 -2.77208e-22)
(1.99843 0.0118306 1.28394e-23)
(1.99897 0.0121187 2.64109e-22)
(1.99951 0.0122833 -2.38256e-22)
(2.00004 0.0123287 1.31516e-23)
(2.00054 0.0122613 6.3511e-24)
(2.00101 0.0120893 -3.03998e-22)
(2.00144 0.011822 2.01161e-22)
(2.00183 0.011469 -9.10638e-23)
(2.00219 0.0110401 -8.56451e-23)
(2.00251 0.010545 -3.17862e-22)
(2.00278 0.0099925 9.1777e-22)
(2.00302 0.00939116 2.0315e-24)
(2.00323 0.00874879 1.13338e-21)
(2.00341 0.00807337 3.82155e-22)
(2.00356 0.00736827 -6.674e-23)
(2.00368 0.00663973 -1.20947e-22)
(2.00378 0.00589292 -5.5302e-23)
(2.00386 0.00513135 5.532e-23)
(2.00393 0.00435824 -5.37088e-23)
(2.00398 0.00357622 -5.00166e-23)
(2.00402 0.00278754 5.00347e-23)
(2.00405 0.001994 1.79921e-24)
(2.00406 0.00119747 4.81435e-23)
(2.00407 0.000398895 0)
(2.00187 -0.000198503 0)
(2.00185 -0.000592208 0)
(2.00181 -0.000981432 0)
(2.00175 -0.0013638 -1.65689e-22)
(2.00166 -0.00173608 1.65663e-22)
(2.00156 -0.00209484 -1.67215e-22)
(2.00142 -0.00243626 1.67196e-22)
(2.00126 -0.00275601 0)
(2.00107 -0.00304925 0)
(2.00085 -0.00331055 1.72068e-22)
(2.0006 -0.00353379 -3.45686e-22)
(2.00032 -0.00371186 -8.34245e-25)
(2 -0.00383799 7.07894e-22)
(1.99964 -0.00390382 2.13557e-21)
(1.99925 -0.00389949 1.44476e-21)
(1.99883 -0.00381833 -1.44745e-21)
(1.99838 -0.00365237 -1.4751e-21)
(1.9979 -0.00339163 9.24307e-22)
(1.99741 -0.00302904 -7.52632e-22)
(1.99692 -0.00255959 3.96167e-23)
(1.99643 -0.00197633 -1.52179e-21)
(1.99595 -0.0012824 3.05419e-21)
(1.99551 -0.000478467 -3.82407e-22)
(1.99511 0.000429267 0)
(1.99478 0.00143128 0)
(1.99453 0.00251352 0)
(1.99436 0.00365791 0)
(1.9943 0.0048428 -1.83398e-22)
(1.99434 0.00604315 1.89124e-22)
(1.9945 0.00723352 3.74042e-25)
(1.99476 0.00838487 0)
(1.99513 0.00946982 1.60976e-22)
(1.99559 0.0104649 -1.69885e-22)
(1.99613 0.0113492 1.57992e-22)
(1.99674 0.0121063 2.93285e-22)
(1.99738 0.0127246 -4.37074e-22)
(1.99805 0.0131978 -2.65435e-22)
(1.99873 0.0135238 1.35948e-22)
(1.9994 0.0137055 0)
(2.00005 0.0137491 1.15546e-22)
(2.00067 0.013663 1.09762e-24)
(2.00124 0.0134581 1.5012e-24)
(2.00177 0.0131458 -9.48777e-23)
(2.00225 0.0127381 -1.72298e-22)
(2.00268 0.0122469 2.60034e-22)
(2.00306 0.0116834 -6.14782e-22)
(2.0034 0.011058 6.14734e-22)
(2.00368 0.0103812 -1.14205e-21)
(2.00393 0.00966096 1.15617e-21)
(2.00414 0.00890618 -3.82897e-22)
(2.00431 0.00812053 0)
(2.00446 0.00731163 5.453e-23)
(2.00458 0.0064845 -5.45482e-23)
(2.00467 0.00564282 0)
(2.00475 0.00478997 0)
(2.00481 0.00392861 0)
(2.00485 0.00306112 0)
(2.00488 0.00218903 0)
(2.0049 0.00131429 0)
(2.00491 0.000437658 0)
(2.0023 -0.00022785 0)
(2.00227 -0.000679842 0)
(2.00222 -0.0011275 0)
(2.00215 -0.00156865 0)
(2.00206 -0.00200004 0)
(2.00193 -0.00241833 1.66171e-22)
(2.00178 -0.00281956 -3.33394e-22)
(2.0016 -0.00319926 1.67244e-22)
(2.00138 -0.00355226 -1.69948e-22)
(2.00112 -0.00387264 -1.60044e-24)
(2.00083 -0.00415372 1.71545e-22)
(2.00049 -0.00438741 0)
(2.00011 -0.00456561 -3.56497e-22)
(1.99969 -0.00467929 -1.08228e-21)
(1.99922 -0.00471663 7.22927e-21)
(1.99872 -0.00466807 -2.90663e-21)
(1.99817 -0.00452425 1.47937e-21)
(1.99759 -0.00427285 1.81161e-24)
(1.99699 -0.00390432 9.42801e-22)
(1.99637 -0.00341151 -1.49677e-21)
(1.99576 -0.00278416 -3.10857e-21)
(1.99517 -0.00202311 1.46089e-23)
(1.9946 -0.00112989 0)
(1.9941 -0.000109399 -3.91417e-22)
(1.99367 0.0010281 1.11072e-24)
(1.99333 0.00226636 3.90323e-22)
(1.99311 0.00358435 0)
(1.99301 0.00495626 0)
(1.99305 0.00635166 -1.84289e-22)
(1.99323 0.00773933 -3.65082e-22)
(1.99356 0.00908325 3.50512e-22)
(1.99401 0.0103494 -1.7986e-22)
(1.99458 0.0115088 0)
(1.99525 0.0125357 -4.69716e-22)
(1.996 0.0134105 1.58016e-22)
(1.9968 0.0141198 2.80287e-22)
(1.99763 0.0146568 -2.8176e-22)
(1.99847 0.0150206 1.29287e-22)
(1.99929 0.0152158 1.14681e-22)
(2.00008 0.0152513 -3.50267e-22)
(2.00083 0.0151389 1.34659e-24)
(2.00153 0.0148923 1.79616e-24)
(2.00216 0.014526 9.47996e-23)
(2.00274 0.0140546 2.51732e-24)
(2.00325 0.0134924 0)
(2.0037 0.0128527 7.15126e-24)
(2.00409 0.0121474 5.9062e-22)
(2.00442 0.0113892 -1.03971e-21)
(2.00471 0.0105856 5.06267e-24)
(2.00495 0.00974705 -6.06864e-23)
(2.00515 0.00887766 0)
(2.00532 0.00798583 5.09801e-23)
(2.00545 0.00707643 -5.09987e-23)
(2.00556 0.00615333 0)
(2.00564 0.00522 0)
(2.00571 0.00427901 0)
(2.00576 0.00333271 4.19847e-23)
(2.00579 0.00238245 -4.20011e-23)
(2.00582 0.00143009 0)
(2.00583 0.000476046 0)
(2.00278 -0.00025957 0)
(2.00275 -0.0007746 0)
(2.0027 -0.00128565 0)
(2.00262 -0.00179081 0)
(2.00251 -0.00228697 0)
(2.00238 -0.00277096 -1.6494e-22)
(2.0022 -0.0032388 3.31029e-22)
(2.002 -0.00368597 1.40787e-24)
(2.00175 -0.00410709 1.59545e-24)
(2.00146 -0.00449573 1.72641e-22)
(2.00112 -0.00484473 -5.14525e-22)
(2.00073 -0.00514517 -2.1249e-24)
(2.00029 -0.00538739 1.74944e-22)
(1.99979 -0.00556121 -3.6207e-22)
(1.99924 -0.00565361 -2.16298e-21)
(1.99864 -0.00565125 -2.19698e-21)
(1.99798 -0.0055421 -4.71864e-24)
(1.99729 -0.00531211 1.81507e-22)
(1.99655 -0.00494803 5.70549e-22)
(1.9958 -0.00443964 -2.3197e-21)
(1.99504 -0.00377338 -2.44008e-21)
(1.9943 -0.00294607 -7.84338e-22)
(1.9936 -0.00195992 0)
(1.99295 -0.000817551 -4.01401e-22)
(1.9924 0.000470058 4.65608e-25)
(1.99197 0.00188446 4.01276e-22)
(1.99167 0.00340085 2.02003e-22)
(1.99153 0.00498867 0)
(1.99156 0.00661073 3.91919e-22)
(1.99176 0.00822871 -5.67861e-22)
(1.99215 0.00979752 1.85608e-22)
(1.9927 0.0112747 -3.47231e-22)
(1.99341 0.0126241 5.07438e-22)
(1.99423 0.0138141 -1.50898e-23)
(1.99515 0.0148213 -1.63711e-22)
(1.99614 0.01563 1.45587e-22)
(1.99716 0.0162335 0)
(1.99818 0.0166326 0)
(1.99918 0.0168352 -1.13326e-22)
(2.00013 0.0168537 2.35931e-22)
(2.00103 0.016704 1.06439e-22)
(2.00186 0.016404 2.15116e-24)
(2.00261 0.0159719 -1.79928e-22)
(2.00329 0.0154255 -2.40941e-22)
(2.00389 0.0147817 9.43118e-22)
(2.00441 0.0140561 -5.97647e-22)
(2.00486 0.013263 2.62054e-22)
(2.00525 0.0124162 7.76885e-22)
(2.00558 0.0115228 -8.57169e-22)
(2.00585 0.0105957 -1.13858e-22)
(2.00608 0.00963884 0)
(2.00626 0.00866125 -4.70671e-23)
(2.00641 0.00766749 4.7088e-23)
(2.00653 0.00666165 0)
(2.00662 0.00564717 4.06051e-23)
(2.00669 0.0046264 -4.06214e-23)
(2.00675 0.00360159 0)
(2.00678 0.00257372 0)
(2.00681 0.00154446 0)
(2.00682 0.000513945 0)
(2.00333 -0.000293553 0)
(2.0033 -0.000876178 0)
(2.00324 -0.00145539 0)
(2.00316 -0.00202965 0)
(2.00304 -0.00259615 0)
(2.00289 -0.003152 0)
(2.0027 -0.00369333 -1.64795e-22)
(2.00247 -0.00421571 -1.53547e-24)
(2.00219 -0.00471366 -1.69789e-22)
(2.00186 -0.00518044 1.66057e-22)
(2.00148 -0.00560834 -1.74331e-22)
(2.00104 -0.00598771 3.44309e-22)
(2.00053 -0.00630744 -3.54252e-22)
(1.99996 -0.00655572 -5.50852e-24)
(1.99932 -0.00671802 3.26075e-21)
(1.99861 -0.00677768 -7.43416e-22)
(1.99783 -0.00671928 -1.51222e-21)
(1.997 -0.00652611 -2.00144e-22)
(1.99612 -0.00618011 -1.20646e-23)
(1.9952 -0.00566693 2.37025e-21)
(1.99427 -0.0049692 -1.23212e-22)
(1.99336 -0.0040782 -4.06477e-22)
(1.99248 -0.00299597 6.14366e-22)
(1.99167 -0.00172198 2.09155e-22)
(1.99096 -0.000267615 0)
(1.9904 0.00134667 2.10369e-22)
(1.99 0.00309168 -2.02223e-22)
(1.9898 0.00493076 4.02656e-22)
(1.98981 0.00681877 -5.97238e-22)
(1.99005 0.00870803 5.75557e-22)
(1.99051 0.010542 -1.91695e-22)
(1.99118 0.012267 3.5705e-22)
(1.99204 0.0138379 -1.84269e-22)
(1.99305 0.0152156 4.92352e-22)
(1.99419 0.0163714 -1.76038e-23)
(1.99539 0.017288 -4.55034e-22)
(1.99663 0.017959 -2.69086e-22)
(1.99787 0.0183884 2.68858e-22)
(1.99907 0.0185883 0)
(2.00022 0.0185766 1.12738e-22)
(2.00128 0.018375 -1.02656e-22)
(2.00226 0.0180061 -9.19106e-23)
(2.00314 0.017493 6.05911e-24)
(2.00393 0.0168573 0)
(2.00462 0.0161189 5.56226e-22)
(2.00522 0.0152968 -1.0763e-21)
(2.00573 0.0144064 -3.71465e-22)
(2.00617 0.0134618 -1.23124e-22)
(2.00653 0.0124718 5.2729e-23)
(2.00684 0.011451 -3.4463e-22)
(2.00709 0.0104025 1.43733e-22)
(2.00729 0.00933614 -4.57066e-23)
(2.00745 0.00825595 0)
(2.00758 0.00716617 0)
(2.00768 0.00607003 0)
(2.00776 0.00496947 -3.48559e-23)
(2.00781 0.00386662 1.13297e-24)
(2.00785 0.00276202 3.37576e-23)
(2.00788 0.00165695 0)
(2.00788 0.000551206 0)
(2.00395 -0.000329579 -1.5782e-22)
(2.00391 -0.000983985 1.58296e-22)
(2.00385 -0.0016358 0)
(2.00376 -0.00228393 -1.59792e-22)
(2.00364 -0.00292607 1.59748e-22)
(2.00347 -0.00355976 0)
(2.00327 -0.00418145 1.63252e-22)
(2.00302 -0.00478691 1.66149e-24)
(2.00271 -0.00537073 -3.31611e-22)
(2.00235 -0.005926 -1.71042e-22)
(2.00193 -0.00644462 1.66473e-22)
(2.00143 -0.00691629 1.71266e-22)
(2.00086 -0.0073286 0)
(2.0002 -0.00766783 0)
(1.99947 -0.00791769 -3.57784e-22)
(1.99864 -0.00805805 -1.11409e-21)
(1.99774 -0.00806985 1.50002e-21)
(1.99675 -0.00793262 -1.16276e-21)
(1.9957 -0.0076225 -1.47117e-23)
(1.99459 -0.00711955 1.62782e-21)
(1.99346 -0.00640152 5.63957e-21)
(1.99233 -0.00545197 -8.33211e-22)
(1.99124 -0.00427143 6.31497e-22)
(1.99023 -0.00285571 2.13317e-22)
(1.98933 -0.00121585 0)
(1.9886 0.000626236 -2.10546e-22)
(1.98808 0.00263645 0)
(1.98779 0.00477055 2.09175e-22)
(1.98777 0.00697328 -4.12923e-24)
(1.98804 0.00918529 -8.14368e-22)
(1.98859 0.0113348 1.18315e-21)
(1.9894 0.0133539 -1.55371e-23)
(1.99046 0.0151849 -3.6793e-22)
(1.9917 0.0167792 4.47232e-24)
(1.99308 0.0181024 -1.48822e-22)
(1.99456 0.0191345 4.60106e-22)
(1.99606 0.0198712 0)
(1.99756 0.0203211 0)
(1.99899 0.0205032 -2.30461e-22)
(2.00035 0.020443 1.83755e-23)
(2.00161 0.0201693 4.1442e-22)
(2.00275 0.0197117 6.19873e-24)
(2.00377 0.0190986 7.13987e-24)
(2.00467 0.0183561 6.05747e-22)
(2.00545 0.0175077 -3.37349e-21)
(2.00613 0.0165764 1.32444e-21)
(2.0067 0.0155763 2.4466e-22)
(2.00719 0.0145246 0)
(2.00759 0.0134314 0)
(2.00792 0.0123109 1.93701e-22)
(2.00819 0.0111663 4.10184e-23)
(2.00841 0.010008 -4.10341e-23)
(2.00858 0.00883942 0)
(2.00872 0.00766465 -3.34446e-23)
(2.00882 0.00648655 3.34598e-23)
(2.0089 0.00530663 0)
(2.00896 0.00412655 0)
(2.009 0.00294637 2.83449e-23)
(2.00902 0.00176694 -2.83606e-23)
(2.00903 0.000587635 0)
(2.00464 -0.000367397 0)
(2.0046 -0.00109724 0)
(2.00454 -0.00182553 1.57051e-22)
(2.00444 -0.00255184 -1.56999e-22)
(2.00431 -0.00327453 0)
(2.00414 -0.00399168 0)
(2.00392 -0.00470035 -1.61454e-22)
(2.00366 -0.00539668 -1.78191e-24)
(2.00333 -0.00607554 3.28382e-22)
(2.00294 -0.00673007 -1.65192e-22)
(2.00247 -0.00735193 -3.40283e-22)
(2.00192 -0.00793035 1.65071e-22)
(2.00128 -0.00845189 3.46142e-22)
(2.00055 -0.00890086 -3.59656e-22)
(1.99971 -0.00925899 -2.1872e-21)
(1.99876 -0.00950253 3.67289e-22)
(1.99771 -0.0096081 -7.68233e-22)
(1.99656 -0.00955066 1.74849e-21)
(1.99531 -0.00929939 -7.86883e-22)
(1.99399 -0.00882712 -1.61441e-21)
(1.99262 -0.00810542 -6.71877e-21)