/*--------------------------------*- C++ -*----------------------------------*\
  =========                 |
  \\      /  F ield         | OpenFOAM: The Open Source CFD Toolbox
   \\    /   O peration     | Website:  https://openfoam.org
    \\  /    A nd           | Version:  12
     \\/     M anipulation  |
\*---------------------------------------------------------------------------*/
FoamFile
{
    format      ascii;
    class       volScalarField;
    location    "220";
    object      k;
}
// * * * * * * * * * * * * * * * * * * * * * * * * * * * * * * * * * * * * * //

dimensions      [0 2 -2 0 0 0 0];

internalField   nonuniform List<scalar> 
16227
(
0.00914646
0.00914648
0.00914647
0.00914651
0.0091465
0.00914654
0.00914653
0.00914651
0.00914651
0.00914653
0.00914657
0.00914659
0.00914665
0.00914665
0.00914665
0.00914665
0.00914665
0.00914665
0.00914665
0.00914665
0.00914665
0.00914665
0.00914665
0.00914665
0.00914665
0.00914665
0.00914665
0.00914666
0.00914667
0.00914664
0.00914665
0.00914665
0.00914665
0.00914665
0.00914665
0.00914665
0.00914665
0.00914665
0.00914665
0.00914665
0.00914665
0.00914665
0.00914665
0.00914665
0.00914665
0.00914665
0.00914665
0.00914663
0.00914662
0.00914662
0.00914662
0.00914661
0.00914654
0.00914654
0.00914649
0.00914649
0.00914651
0.00914649
0.00914647
0.00914646
0.00848122
0.00848124
0.00848123
0.00848127
0.00848127
0.0084813
0.00848129
0.00848127
0.00848128
0.00848129
0.00848134
0.00848136
0.00848151
0.00848157
0.00848158
0.00848158
0.00848158
0.00848158
0.00848158
0.00848158
0.00848159
0.0084816
0.0084816
0.0084816
0.0084816
0.0084816
0.0084816
0.0084816
0.00848158
0.00848153
0.00848159
0.00848161
0.00848161
0.00848161
0.00848161
0.0084816
0.00848158
0.00848158
0.00848159
0.00848159
0.00848159
0.00848159
0.00848159
0.00848157
0.00848157
0.00848156
0.00848156
0.00848156
0.00848156
0.00848155
0.00848152
0.00848147
0.00848135
0.00848133
0.0084813
0.00848128
0.00848131
0.00848123
0.00848125
0.00848122
0.00790074
0.00790076
0.00790076
0.00790078
0.00790077
0.00790086
0.00790081
0.0079008
0.00790081
0.00790082
0.00790086
0.00790088
0.00790113
0.00790119
0.0079012
0.00790121
0.0079012
0.0079012
0.00790122
0.00790117
0.0079012
0.00790121
0.00790121
0.00790121
0.00790121
0.00790121
0.00790121
0.00790122
0.00790121
0.00790114
0.00790121
0.00790122
0.00790123
0.00790123
0.00790124
0.00790124
0.00790125
0.00790124
0.00790123
0.00790123
0.00790124
0.00790124
0.00790123
0.00790122
0.00790122
0.00790123
0.00790121
0.00790122
0.00790121
0.00790118
0.00790114
0.00790095
0.00790087
0.00790085
0.00790084
0.00790083
0.00790086
0.00790077
0.00790078
0.00790076
0.00739021
0.00739023
0.00739024
0.00739025
0.00739025
0.00739032
0.00739032
0.00739028
0.00739028
0.00739027
0.00739032
0.00739037
0.00739063
0.0073907
0.00739072
0.00739073
0.00739073
0.00739075
0.00739068
0.00739055
0.00739066
0.0073907
0.0073907
0.00739071
0.00739072
0.00739072
0.00739072
0.00739072
0.0073907
0.00739063
0.00739071
0.00739074
0.00739074
0.00739075
0.00739076
0.00739078
0.00739079
0.00739079
0.0073908
0.0073908
0.00739081
0.00739081
0.00739081
0.00739081
0.00739081
0.0073908
0.00739081
0.0073908
0.0073908
0.00739077
0.00739065
0.00739045
0.00739035
0.00739037
0.00739037
0.00739039
0.00739036
0.00739028
0.00739029
0.00739026
0.00693805
0.00693806
0.00693806
0.00693808
0.00693808
0.00693813
0.00693816
0.00693809
0.0069381
0.00693809
0.00693812
0.00693818
0.00693842
0.00693854
0.00693855
0.00693854
0.00693855
0.00693852
0.0069383
0.00693823
0.00693842
0.00693849
0.00693849
0.00693848
0.00693848
0.00693848
0.00693848
0.00693849
0.00693848
0.0069384
0.0069385
0.00693855
0.00693857
0.00693858
0.0069386
0.00693862
0.00693865
0.00693867
0.00693869
0.0069387
0.00693872
0.00693874
0.00693873
0.00693874
0.00693874
0.00693875
0.00693875
0.00693874
0.00693874
0.00693865
0.00693841
0.00693829
0.00693822
0.00693824
0.00693826
0.00693831
0.00693824
0.00693817
0.00693817
0.00693815
0.00653503
0.00653505
0.00653504
0.00653505
0.00653505
0.00653509
0.00653512
0.00653506
0.00653503
0.00653502
0.00653501
0.00653504
0.00653514
0.00653542
0.00653547
0.00653548
0.00653546
0.00653535
0.00653511
0.00653506
0.00653528
0.00653534
0.00653533
0.00653532
0.00653532
0.00653533
0.00653534
0.00653534
0.00653533
0.00653526
0.00653538
0.00653543
0.00653547
0.00653551
0.00653555
0.00653558
0.00653563
0.00653566
0.00653569
0.00653572
0.00653574
0.00653576
0.00653578
0.00653581
0.00653581
0.00653582
0.00653582
0.00653583
0.00653582
0.00653567
0.00653543
0.00653531
0.00653527
0.00653531
0.00653535
0.00653534
0.00653528
0.00653521
0.00653521
0.0065352
0.00617376
0.00617377
0.00617376
0.00617377
0.00617376
0.00617379
0.00617382
0.00617379
0.00617373
0.0061737
0.00617367
0.00617365
0.00617374
0.00617398
0.0061741
0.0061741
0.00617405
0.00617375
0.00617361
0.00617361
0.00617382
0.00617387
0.00617385
0.00617384
0.00617384
0.00617384
0.00617385
0.00617387
0.00617387
0.0061738
0.00617394
0.00617401
0.00617406
0.00617413
0.00617419
0.00617425
0.0061743
0.00617437
0.00617442
0.00617448
0.00617451
0.00617455
0.00617459
0.00617461
0.00617464
0.00617465
0.00617465
0.00617466
0.00617459
0.00617432
0.00617418
0.00617409
0.00617409
0.00617415
0.00617416
0.00617414
0.00617409
0.00617403
0.00617404
0.00617402
0.00584824
0.00584824
0.00584823
0.00584824
0.00584822
0.00584823
0.00584826
0.00584823
0.00584816
0.0058481
0.00584805
0.00584798
0.005848
0.00584811
0.00584837
0.00584843
0.00584834
0.00584798
0.00584785
0.00584783
0.00584805
0.00584809
0.00584806
0.00584804
0.00584803
0.00584803
0.00584805
0.00584807
0.00584808
0.00584802
0.00584818
0.00584828
0.00584837
0.00584845
0.00584854
0.00584863
0.00584871
0.0058488
0.00584888
0.00584895
0.00584902
0.00584907
0.00584912
0.00584917
0.0058492
0.00584922
0.00584924
0.00584924
0.0058491
0.00584884
0.00584871
0.00584866
0.0058487
0.00584873
0.00584872
0.00584871
0.00584867
0.00584861
0.00584862
0.0058486
0.00555354
0.00555353
0.00555353
0.00555352
0.0055535
0.0055535
0.0055535
0.00555346
0.00555342
0.00555333
0.00555325
0.00555315
0.00555312
0.00555318
0.00555348
0.00555354
0.00555335
0.005553
0.00555288
0.00555284
0.00555305
0.00555307
0.00555302
0.00555299
0.00555298
0.00555298
0.00555299
0.00555303
0.00555305
0.00555301
0.00555319
0.00555331
0.00555343
0.00555355
0.00555367
0.00555379
0.00555391
0.00555403
0.00555414
0.00555423
0.00555433
0.00555442
0.00555448
0.00555454
0.00555458
0.00555463
0.00555464
0.00555458
0.0055543
0.00555417
0.00555408
0.00555411
0.00555411
0.00555414
0.00555413
0.00555412
0.00555408
0.00555403
0.00555403
0.00555402
0.00528559
0.00528559
0.00528557
0.00528556
0.00528552
0.00528551
0.00528551
0.00528544
0.00528538
0.00528531
0.00528519
0.00528506
0.00528501
0.00528505
0.00528527
0.00528531
0.00528495
0.00528471
0.0052846
0.00528455
0.00528473
0.00528473
0.00528468
0.00528463
0.00528461
0.00528461
0.00528463
0.00528467
0.0052847
0.00528469
0.0052849
0.00528505
0.0052852
0.00528535
0.00528551
0.00528567
0.00528583
0.00528599
0.00528614
0.00528627
0.00528639
0.00528649
0.00528659
0.00528667
0.00528674
0.00528679
0.00528681
0.00528671
0.00528642
0.0052863
0.00528628
0.00528628
0.00528629
0.00528631
0.0052863
0.0052863
0.00528625
0.00528621
0.0052862
0.0052862
0.005041
0.00504099
0.00504097
0.00504094
0.00504091
0.00504088
0.00504086
0.00504078
0.0050407
0.0050406
0.00504049
0.00504032
0.00504019
0.00504016
0.0050402
0.00504034
0.00503999
0.00503977
0.00503964
0.00503957
0.00503966
0.00503969
0.00503963
0.00503956
0.00503953
0.00503953
0.00503955
0.0050396
0.00503966
0.00503966
0.00503989
0.00504009
0.00504028
0.00504047
0.00504068
0.00504089
0.0050411
0.00504129
0.00504148
0.00504165
0.0050418
0.00504194
0.00504206
0.00504216
0.00504224
0.00504229
0.00504224
0.0050421
0.00504192
0.00504183
0.00504182
0.00504182
0.00504183
0.00504186
0.00504185
0.00504184
0.0050418
0.00504175
0.00504175
0.00504174
0.00481691
0.0048169
0.00481688
0.00481685
0.0048168
0.00481676
0.0048167
0.00481662
0.00481652
0.0048164
0.00481626
0.00481609
0.0048159
0.0048158
0.00481577
0.00481585
0.00481555
0.00481531
0.00481513
0.00481501
0.00481495
0.00481505
0.00481501
0.00481493
0.00481489
0.00481488
0.00481491
0.00481497
0.00481504
0.00481507
0.00481535
0.00481559
0.00481582
0.00481607
0.00481632
0.00481658
0.00481683
0.00481708
0.00481731
0.00481752
0.00481772
0.00481788
0.00481803
0.00481816
0.00481825
0.00481827
0.00481813
0.00481806
0.00481797
0.00481789
0.00481788
0.00481789
0.00481789
0.00481791
0.0048179
0.00481789
0.00481785
0.00481781
0.00481781
0.0048178
0.00461092
0.00461091
0.00461088
0.00461084
0.00461078
0.00461073
0.00461065
0.00461055
0.00461042
0.00461028
0.00461012
0.00460992
0.00460971
0.0046095
0.00460936
0.00460925
0.00460911
0.00460891
0.00460869
0.00460852
0.00460838
0.00460849
0.00460843
0.00460834
0.00460828
0.00460826
0.00460829
0.00460837
0.00460847
0.00460853
0.00460884
0.00460912
0.00460941
0.00460972
0.00461003
0.00461035
0.00461066
0.00461095
0.00461124
0.0046115
0.00461173
0.00461194
0.00461211
0.00461226
0.00461235
0.00461235
0.00461223
0.00461221
0.00461211
0.00461204
0.00461204
0.00461205
0.00461206
0.00461206
0.00461206
0.00461204
0.00461201
0.00461197
0.00461196
0.00461195
0.00442098
0.00442097
0.00442093
0.00442088
0.00442081
0.00442074
0.00442065
0.00442052
0.00442037
0.0044202
0.00442001
0.00441978
0.00441954
0.00441931
0.00441906
0.00441889
0.00441875
0.00441852
0.00441827
0.00441805
0.00441786
0.00441794
0.00441784
0.00441772
0.00441765
0.00441762
0.00441765
0.00441774
0.00441786
0.00441796
0.00441831
0.00441865
0.004419
0.00441937
0.00441975
0.00442013
0.00442051
0.00442086
0.0044212
0.00442152
0.00442179
0.00442203
0.00442223
0.00442239
0.00442243
0.0044224
0.0044224
0.00442238
0.0044223
0.00442226
0.00442225
0.00442226
0.00442226
0.00442226
0.00442226
0.00442224
0.0044222
0.00442217
0.00442216
0.00442215
0.00424532
0.00424531
0.00424527
0.00424521
0.00424513
0.00424504
0.00424493
0.00424478
0.00424461
0.00424441
0.00424419
0.00424392
0.00424365
0.00424337
0.00424309
0.00424286
0.00424268
0.0042424
0.00424209
0.00424182
0.00424158
0.00424161
0.00424148
0.00424133
0.00424123
0.0042412
0.00424123
0.00424133
0.00424148
0.00424162
0.00424202
0.00424242
0.00424283
0.00424327
0.00424372
0.00424418
0.00424463
0.00424506
0.00424546
0.00424582
0.00424614
0.00424642
0.00424665
0.00424679
0.00424676
0.00424681
0.00424684
0.00424684
0.0042468
0.00424675
0.00424676
0.00424676
0.00424676
0.00424676
0.00424674
0.00424673
0.00424669
0.00424666
0.00424664
0.00424663
0.00408245
0.00408243
0.00408238
0.00408231
0.00408222
0.00408212
0.00408199
0.00408182
0.00408162
0.00408139
0.00408113
0.00408084
0.00408053
0.0040802
0.00407988
0.0040796
0.00407936
0.00407902
0.00407865
0.00407832
0.00407804
0.00407795
0.00407782
0.00407765
0.00407752
0.00407747
0.00407751
0.00407762
0.0040778
0.00407798
0.00407844
0.0040789
0.00407939
0.00407991
0.00408045
0.00408099
0.00408152
0.00408202
0.00408248
0.0040829
0.00408327
0.00408359
0.00408385
0.00408397
0.00408397
0.00408403
0.00408408
0.00408406
0.00408403
0.00408402
0.00408404
0.00408403
0.00408403
0.00408403
0.00408401
0.00408398
0.00408394
0.0040839
0.00408389
0.00408388
0.00393104
0.00393102
0.00393097
0.00393088
0.00393078
0.00393066
0.00393051
0.00393032
0.0039301
0.00392984
0.00392955
0.00392921
0.00392887
0.00392849
0.00392811
0.00392778
0.00392749
0.00392708
0.00392665
0.00392624
0.00392588
0.00392561
0.00392554
0.00392536
0.00392521
0.00392514
0.00392517
0.0039253
0.00392551
0.00392575
0.00392626
0.0039268
0.00392738
0.00392799
0.00392862
0.00392925
0.00392987
0.00393045
0.00393099
0.00393147
0.00393189
0.00393224
0.00393244
0.00393255
0.00393265
0.00393275
0.00393282
0.00393279
0.00393277
0.00393278
0.00393278
0.00393277
0.00393276
0.00393275
0.00393273
0.00393269
0.00393265
0.00393261
0.0039326
0.00393258
0.00378996
0.00378994
0.00378988
0.00378979
0.00378967
0.00378954
0.00378937
0.00378916
0.00378891
0.00378862
0.0037883
0.00378792
0.00378753
0.00378711
0.00378667
0.00378628
0.00378592
0.00378546
0.00378496
0.00378447
0.00378403
0.00378365
0.00378355
0.00378335
0.00378316
0.00378307
0.00378309
0.00378324
0.00378348
0.00378377
0.00378436
0.00378499
0.00378566
0.00378637
0.00378711
0.00378785
0.00378856
0.00378922
0.00378984
0.00379038
0.00379085
0.0037912
0.00379134
0.00379153
0.00379169
0.00379182
0.00379188
0.00379186
0.00379185
0.00379186
0.00379186
0.00379184
0.00379181
0.0037918
0.00379177
0.00379173
0.00379168
0.00379164
0.00379162
0.0037916
0.00365823
0.0036582
0.00365813
0.00365804
0.00365791
0.00365776
0.00365758
0.00365734
0.00365706
0.00365674
0.00365639
0.00365597
0.00365553
0.00365506
0.00365457
0.00365411
0.00365367
0.00365314
0.00365258
0.00365201
0.00365149
0.00365104
0.00365082
0.00365059
0.00365036
0.00365025
0.00365026
0.00365042
0.00365071
0.00365106
0.00365173
0.00365245
0.00365324
0.00365407
0.00365493
0.00365578
0.0036566
0.00365736
0.00365804
0.00365864
0.00365915
0.00365951
0.00365969
0.00365991
0.0036601
0.00366023
0.00366026
0.00366025
0.00366026
0.00366027
0.00366026
0.00366023
0.0036602
0.00366017
0.00366013
0.00366008
0.00366002
0.00365998
0.00365996
0.00365994
0.00353496
0.00353493
0.00353486
0.00353475
0.00353461
0.00353445
0.00353425
0.00353398
0.00353369
0.00353334
0.00353294
0.00353249
0.003532
0.00353148
0.00353093
0.00353039
0.00352987
0.00352928
0.00352864
0.00352799
0.00352736
0.00352682
0.00352639
0.0035262
0.00352596
0.00352582
0.00352582
0.003526
0.00352633
0.00352675
0.00352751
0.00352836
0.00352927
0.00353024
0.00353123
0.00353221
0.00353313
0.00353399
0.00353473
0.00353535
0.00353587
0.00353623
0.00353653
0.00353679
0.003537
0.00353711
0.00353713
0.00353713
0.00353715
0.00353714
0.00353712
0.00353708
0.00353703
0.00353699
0.00353694
0.00353688
0.00353682
0.00353677
0.00353675
0.00353673
0.00341939
0.00341936
0.00341929
0.00341917
0.00341902
0.00341884
0.00341862
0.00341834
0.00341802
0.00341764
0.00341721
0.00341672
0.00341619
0.00341561
0.00341499
0.00341435
0.00341373
0.00341309
0.00341239
0.00341165
0.00341094
0.00341028
0.00340973
0.00340949
0.0034092
0.00340902
0.00340901
0.0034092
0.00340958
0.00341008
0.00341095
0.00341193
0.00341299
0.00341412
0.00341526
0.00341637
0.00341742
0.00341835
0.00341915
0.00341983
0.00342032
0.00342075
0.00342112
0.00342141
0.00342161
0.00342168
0.0034217
0.00342172
0.00342173
0.00342171
0.00342167
0.00342161
0.00342155
0.00342149
0.00342143
0.00342136
0.00342129
0.00342124
0.00342121
0.00342119
0.00331085
0.00331081
0.00331073
0.00331062
0.00331045
0.00331026
0.00331002
0.00330973
0.00330938
0.00330898
0.00330851
0.00330799
0.00330741
0.00330678
0.0033061
0.00330538
0.00330467
0.00330396
0.00330317
0.00330233
0.00330152
0.00330077
0.00330011
0.00329975
0.00329941
0.00329918
0.00329916
0.00329937
0.00329981
0.00330042
0.00330141
0.00330255
0.00330378
0.00330508
0.00330639
0.00330765
0.00330879
0.00330979
0.00331067
0.00331141
0.00331194
0.00331241
0.0033128
0.00331309
0.00331325
0.00331331
0.00331333
0.00331334
0.00331333
0.00331329
0.00331322
0.00331315
0.00331307
0.003313
0.00331291
0.00331284
0.00331277
0.00331271
0.00331267
0.00331265
0.00320873
0.00320869
0.00320861
0.00320848
0.00320831
0.00320811
0.00320786
0.00320755
0.00320718
0.00320675
0.00320626
0.00320569
0.00320508
0.00320439
0.00320365
0.00320286
0.00320206
0.00320126
0.00320038
0.00319945
0.00319853
0.00319766
0.00319692
0.00319636
0.0031961
0.00319581
0.00319577
0.00319601
0.00319653
0.00319724
0.00319838
0.00319971
0.00320114
0.00320263
0.00320412
0.00320556
0.00320669
0.00320776
0.00320864
0.00320942
0.00321004
0.00321055
0.00321094
0.00321118
0.0032113
0.00321136
0.00321138
0.00321138
0.00321134
0.00321127
0.00321118
0.00321109
0.00321099
0.00321089
0.0032108
0.00321071
0.00321063
0.00321056
0.00321052
0.00321049
0.0031125
0.00311246
0.00311237
0.00311224
0.00311207
0.00311185
0.00311159
0.00311126
0.00311087
0.00311042
0.0031099
0.00310931
0.00310865
0.00310792
0.00310712
0.00310625
0.00310535
0.00310443
0.00310349
0.00310249
0.00310147
0.00310049
0.00309965
0.0030992
0.00314573
0.00314549
0.00314544
0.00314569
0.00314625
0.00314703
0.00314826
0.00314969
0.00315123
0.00315283
0.00315444
0.00315596
0.00311142
0.00311179
0.00311271
0.00311351
0.00311416
0.00311466
0.00311501
0.00311519
0.00311528
0.00311533
0.00311533
0.0031153
0.00311522
0.00311512
0.00311501
0.00311489
0.00311476
0.00311465
0.00311454
0.00311444
0.00311434
0.00311427
0.00311422
0.00311419
0.00302167
0.00302163
0.00302154
0.00302141
0.00302123
0.00302101
0.00302073
0.00302039
0.00301999
0.00301952
0.00301898
0.00301836
0.00301767
0.0030169
0.00301605
0.00301511
0.00301412
0.00301308
0.00301204
0.00301099
0.00300989
0.00300884
0.00300817
0.00305175
0.00304951
0.00304937
0.0030493
0.0030496
0.00305027
0.00305121
0.00305262
0.00305428
0.00305606
0.00305791
0.00305975
0.00306136
0.00306479
0.00302216
0.00302245
0.00302321
0.00302382
0.00302427
0.00302454
0.00302467
0.00302472
0.00302473
0.0030247
0.00302462
0.0030245
0.00302437
0.00302422
0.00302406
0.00302391
0.00302378
0.00302365
0.00302353
0.00302343
0.00302335
0.00302329
0.00302326
0.00293583
0.00293578
0.0029357
0.00293556
0.00293538
0.00293515
0.00293487
0.00293452
0.00293411
0.00293363
0.00293307
0.00293242
0.0029317
0.0029309
0.00293
0.00292902
0.00292796
0.00292684
0.00292571
0.00292458
0.00292341
0.00292233
0.00292177
0.00296107
0.00295908
0.00298073
0.00298074
0.00298114
0.00298193
0.00298298
0.00298453
0.00298631
0.00298825
0.00299028
0.00299232
0.00297309
0.00297584
0.00293774
0.00293743
0.00293807
0.00293859
0.00293892
0.00293909
0.00293916
0.00293917
0.00293913
0.00293904
0.0029389
0.00293874
0.00293856
0.00293838
0.00293819
0.00293801
0.00293786
0.00293771
0.00293758
0.00293746
0.00293736
0.00293731
0.00293727
0.00285458
0.00285453
0.00285445
0.00285431
0.00285413
0.0028539
0.00285361
0.00285326
0.00285284
0.00285235
0.00285178
0.00285112
0.00285038
0.00284955
0.00284863
0.0028476
0.00284649
0.00284531
0.00284408
0.00284287
0.00284169
0.00284067
0.00284024
0.00287553
0.00287416
0.00289317
0.00289378
0.00289451
0.00289556
0.00289682
0.00289837
0.00290016
0.00290217
0.00290435
0.00290654
0.00289081
0.00289221
0.0028583
0.00285737
0.00285775
0.00285807
0.00285824
0.00285831
0.0028583
0.00285825
0.00285813
0.00285796
0.00285777
0.00285755
0.00285733
0.0028571
0.00285688
0.00285668
0.00285649
0.00285632
0.00285617
0.00285604
0.00285594
0.00285588
0.00285584
0.00277759
0.00277753
0.00277745
0.00277731
0.00277713
0.0027769
0.00277662
0.00277626
0.00277584
0.00277535
0.00277478
0.00277411
0.00277336
0.00277252
0.00277157
0.00277053
0.00276939
0.00276817
0.0027669
0.00276563
0.00276446
0.00276357
0.00276331
0.00279511
0.00279449
0.00281045
0.0028126
0.00281424
0.00281615
0.00281802
0.00281968
0.00282118
0.00282274
0.00282451
0.00282654
0.00281403
0.00281382
0.00278356
0.00278194
0.0027819
0.00278196
0.00278194
0.00278187
0.00278176
0.00278159
0.00278137
0.00278112
0.00278086
0.00278058
0.00278031
0.00278004
0.00277978
0.00277954
0.00277933
0.00277914
0.00277898
0.00277884
0.00277872
0.00277866
0.00277861
0.00270452
0.00270447
0.00270438
0.00270425
0.00270407
0.00270385
0.00270357
0.00270322
0.0027028
0.00270231
0.00270174
0.00270108
0.00270033
0.00269949
0.00269854
0.00269749
0.00269636
0.00269514
0.00269388
0.00269264
0.00269155
0.00269082
0.00269081
0.00271973
0.00272015
0.00273324
0.00273832
0.00274243
0.00274711
0.00275125
0.00275328
0.00275327
0.00275245
0.00275202
0.00275255
0.00274322
0.00274063
0.00271325
0.00271089
0.00271023
0.00270997
0.00270972
0.00270946
0.00270918
0.00270887
0.00270854
0.0027082
0.00270786
0.00270751
0.00270718
0.00270687
0.00270657
0.00270631
0.00270607
0.00270586
0.00270567
0.00270552
0.0027054
0.00270533
0.00270528
0.0026351
0.00263506
0.00263497
0.00263485
0.00263467
0.00263445
0.00263418
0.00263384
0.00263344
0.00263296
0.0026324
0.00263175
0.00263101
0.00263019
0.00262926
0.00262824
0.00262713
0.00262596
0.00262478
0.00262365
0.00262279
0.00262228
0.00262269
0.00264958
0.00265113
0.0026625
0.00267446
0.00268504
0.00269961
0.00271346
0.00271733
0.00271001
0.0026989
0.0026904
0.00268574
0.00267852
0.00267272
0.00264714
0.00264406
0.0026426
0.00264187
0.00264128
0.00264075
0.00264027
0.0026398
0.00263934
0.0026389
0.00263847
0.00263806
0.00263767
0.00263731
0.00263698
0.00263667
0.00263641
0.00263618
0.00263598
0.00263581
0.00263568
0.0026356
0.00263555
0.00256908
0.00256903
0.00256895
0.00256883
0.00256867
0.00256846
0.00256819
0.00256787
0.00256748
0.00256702
0.00256649
0.00256586
0.00256516
0.00256436
0.00256347
0.0025625
0.00256146
0.00256039
0.00255935
0.00255847
0.002558
0.00255783
0.00255912
0.00258503
0.00258753
0.00260186
0.00262763
0.00265896
0.00271575
0.00278437
0.00279933
0.00274756
0.00268694
0.00264863
0.00262923
0.00261982
0.00261039
0.00258497
0.00258124
0.00257873
0.00257735
0.00257632
0.00257548
0.00257475
0.0025741
0.0025735
0.00257295
0.00257243
0.00257195
0.0025715
0.00257109
0.00257072
0.00257039
0.0025701
0.00256985
0.00256964
0.00256945
0.00256932
0.00256923
0.00256918
0.00250621
0.00250616
0.00250609
0.00250598
0.00250582
0.00250562
0.00250538
0.00250507
0.00250471
0.00250428
0.00250377
0.00250318
0.00250252
0.00250178
0.00250095
0.00250006
0.00249913
0.00249821
0.0024974
0.00249688
0.00249698
0.00249741
0.00250061
0.00252683
0.00253027
0.00255683
0.00260934
0.00270764
0.00286937
0.00303468
0.00307322
0.00296417
0.00279916
0.00264978
0.00258964
0.00256624
0.00255398
0.00252648
0.0025221
0.00251832
0.00251614
0.00251457
0.00251336
0.00251237
0.00251153
0.00251078
0.00251011
0.0025095
0.00250895
0.00250844
0.00250799
0.00250758
0.00250722
0.0025069
0.00250663
0.0025064
0.00250621
0.00250607
0.00250598
0.00250592
0.00244628
0.00244623
0.00244616
0.00244606
0.00244592
0.00244574
0.00244551
0.00244523
0.0024449
0.0024445
0.00244403
0.00244349
0.00244289
0.00244221
0.00244148
0.0024407
0.00243992
0.00243921
0.00243871
0.00243869
0.00243954
0.00244099
0.00244769
0.00247568
0.00248256
0.00253317
0.00262821
0.00282688
0.00318155
0.00406803
0.00412473
0.0034937
0.00303199
0.00274164
0.00257694
0.00251675
0.00250386
0.00247116
0.00246626
0.00246102
0.00245791
0.00245574
0.00245413
0.00245287
0.00245182
0.00245092
0.00245014
0.00244944
0.00244882
0.00244827
0.00244776
0.00244732
0.00244693
0.0024466
0.00244631
0.00244607
0.00244587
0.00244572
0.00244562
0.00244556
0.00238908
0.00238905
0.00238898
0.00238889
0.00238876
0.0023886
0.0023884
0.00238815
0.00238784
0.00238749
0.00238707
0.00238659
0.00238605
0.00238546
0.00238484
0.0023842
0.00238361
0.00238318
0.00238308
0.00238369
0.00238547
0.00238874
0.00240098
0.00243194
0.00244999
0.00253497
0.00266999
0.00293269
0.00456667
0.00527973
0.00339694
0.00292392
0.00259983
0.00246957
0.00245962
0.00241848
0.00241323
0.00240649
0.00240235
0.00239956
0.00239754
0.002396
0.00239475
0.00239371
0.00239282
0.00239204
0.00239136
0.00239075
0.00239022
0.00238975
0.00238933
0.00238898
0.00238868
0.00238843
0.00238823
0.00238807
0.00238797
0.00238792
0.00233445
0.00233442
0.00233437
0.00233429
0.00233417
0.00233403
0.00233386
0.00233364
0.00233337
0.00233306
0.0023327
0.00233228
0.00233183
0.00233134
0.00233084
0.00233038
0.00233002
0.0023299
0.00233027
0.00233162
0.00233455
0.00234079
0.00236087
0.00239631
0.00244219
0.00257093
0.0027601
0.00334594
0.0141553
0.0395465
0.00442304
0.0037665
0.00312685
0.00265291
0.00242494
0.0024205
0.00236829
0.0023626
0.00235446
0.00234927
0.00234586
0.00234344
0.00234162
0.00234019
0.00233901
0.00233802
0.00233716
0.00233642
0.00233577
0.0023352
0.0023347
0.00233427
0.0023339
0.00233359
0.00233333
0.00233312
0.00233296
0.00233286
0.0023328
0.00228222
0.00228219
0.00228214
0.00228208
0.00228198
0.00228186
0.00228171
0.00228153
0.00228131
0.00228105
0.00228075
0.00228041
0.00228004
0.00227967
0.00227931
0.00227903
0.00227892
0.00227916
0.00228006
0.00228222
0.00228654
0.00229713
0.00232714
0.00236985
0.00246955
0.00265694
0.00342299
0.0406582
0.119005
0.142089
0.231553
0.00502538
0.00419813
0.00337151
0.00272043
0.00238886
0.0023847
0.0023205
0.00231387
0.00230454
0.00229833
0.00229437
0.00229158
0.00228952
0.00228792
0.00228662
0.00228554
0.00228462
0.00228383
0.00228314
0.00228255
0.00228202
0.00228157
0.00228119
0.00228087
0.0022806
0.00228038
0.00228022
0.00228012
0.00228006
0.00223222
0.0022322
0.00223216
0.00223211
0.00223203
0.00223194
0.00223182
0.00223168
0.0022315
0.00223129
0.00223106
0.0022308
0.00223053
0.00223027
0.00223007
0.00222998
0.00223013
0.00223072
0.00223215
0.00223516
0.00224109
0.00225719
0.0022983
0.00235227
0.00252663
0.00279666
0.00815089
0.096902
0.0343529
0.0294701
0.020361
0.00612226
0.00475968
0.00360211
0.00277265
0.00236686
0.0023497
0.00227508
0.0022667
0.00225637
0.0022493
0.00224487
0.00224177
0.00223951
0.00223777
0.00223637
0.00223522
0.00223425
0.00223342
0.0022327
0.00223208
0.00223154
0.00223108
0.00223069
0.00223036
0.00223009
0.00222986
0.0022297
0.00222959
0.00222953
0.00218432
0.0021843
0.00218428
0.00218424
0.00218419
0.00218412
0.00218403
0.00218393
0.0021838
0.00218365
0.00218348
0.0021833
0.00218313
0.002183
0.00218294
0.00218303
0.00218342
0.00218434
0.00218628
0.00219016
0.00219787
0.00221994
0.00227179
0.00234023
0.00258838
0.00301036
0.0136279
0.0812954
0.0152363
0.00765925
0.0069385
0.00729405
0.00521735
0.00371108
0.00277774
0.00235883
0.00231318
0.00223193
0.00222085
0.00220963
0.00220194
0.00219717
0.00219385
0.00219144
0.00218959
0.00218812
0.00218692
0.00218591
0.00218505
0.00218432
0.00218368
0.00218313
0.00218266
0.00218226
0.00218193
0.00218165
0.00218143
0.00218126
0.00218116
0.00218109
0.0021384
0.00213838
0.00213837
0.00213834
0.00213831
0.00213827
0.00213822
0.00213815
0.00213807
0.00213798
0.00213788
0.00213778
0.00213771
0.00213768
0.00213775
0.00213799
0.0021386
0.00213989
0.00214231
0.00214699
0.00215641
0.00218409
0.00224483
0.0023285
0.00263056
0.00322804
0.0148078
0.0456335
0.0480441
0.00465751
0.00745198
0.00798114
0.0056095
0.00375906
0.0027453
0.00235731
0.00227433
0.00219075
0.0021762
0.00216414
0.00215612
0.00215111
0.00214767
0.00214517
0.00214326
0.00214175
0.00214051
0.00213948
0.00213861
0.00213786
0.00213721
0.00213666
0.00213618
0.00213578
0.00213544
0.00213517
0.00213495
0.00213478
0.00213467
0.00213461
0.00209432
0.00209431
0.00209431
0.0020943
0.00209429
0.00209427
0.00209425
0.00209423
0.00209419
0.00209416
0.00209413
0.00209411
0.00209411
0.00209416
0.00209434
0.00209478
0.00209564
0.00209724
0.00210005
0.00210541
0.00211628
0.00214851
0.00221547
0.0023125
0.00264421
0.00333894
0.0133147
0.0281469
0.0536699
0.0269329
0.011099
0.00937755
0.0063105
0.00389169
0.00271459
0.00234822
0.00223409
0.00215072
0.00213257
0.00211974
0.00211168
0.00210656
0.00210309
0.00210058
0.00209866
0.00209713
0.00209588
0.00209484
0.00209396
0.00209321
0.00209256
0.00209201
0.00209154
0.00209114
0.0020908
0.00209053
0.0020903
0.00209014
0.00209003
0.00208997
0.00205198
0.00205198
0.00205199
0.002052
0.002052
0.00205201
0.00205203
0.00205204
0.00205206
0.00205208
0.0020521
0.00205214
0.00205221
0.00205237
0.0020527
0.0020533
0.00205435
0.00205619
0.0020593
0.00206516
0.00207716
0.00211258
0.00218316
0.0022903
0.00263346
0.00334209
0.0112219
0.0191787
0.0267481
0.0372923
0.0468481
0.02996
0.0132704
0.00448209
0.00275541
0.00231556
0.00219347
0.00211127
0.00208992
0.00207648
0.00206867
0.00206354
0.0020601
0.00205757
0.00205568
0.00205416
0.00205293
0.00205189
0.00205102
0.00205027
0.00204963
0.00204908
0.00204861
0.00204822
0.00204789
0.00204761
0.0020474
0.00204723
0.00204713
0.00204707
0.00201128
0.00201129
0.0020113
0.00201133
0.00201135
0.00201139
0.00201144
0.00201149
0.00201155
0.00201161
0.00201167
0.00201177
0.00201195
0.00201223
0.00201268
0.00201341
0.0020146
0.00201661
0.00201992
0.00202611
0.00203891
0.00207609
0.00214811
0.00226105
0.00260974
0.0033353
0.00931427
0.0129182
0.0220324
0.0221917
0.0348325
0.0493305
0.0449318
0.0112128
0.00295936
0.0022643
0.00215366
0.00207159
0.00204825
0.00203453
0.00202702
0.00202196
0.00201863
0.0020161
0.00201422
0.00201274
0.00201154
0.00201054
0.00200968
0.00200895
0.00200832
0.00200778
0.00200732
0.00200693
0.00200661
0.00200634
0.00200613
0.00200597
0.00200587
0.00200581
0.00197212
0.00197214
0.00197216
0.0019722
0.00197225
0.00197231
0.00197239
0.00197248
0.00197257
0.00197267
0.00197279
0.00197297
0.00197323
0.00197361
0.00197415
0.00197498
0.00197628
0.0019784
0.00198182
0.00198817
0.00200149
0.00203917
0.00211149
0.0022283
0.00257902
0.00337173
0.00781209
0.00873867
0.0192184
0.0225475
0.0210073
0.0324458
0.0519698
0.0289927
0.00350388
0.00225223
0.00211506
0.0020315
0.00200754
0.00199388
0.00198679
0.00198175
0.00197857
0.00197613
0.00197429
0.00197282
0.00197165
0.00197069
0.00196986
0.00196915
0.00196853
0.00196801
0.00196756
0.00196719
0.00196687
0.00196661
0.0019664
0.00196625
0.00196615
0.00196609
0.00193442
0.00193444
0.00193447
0.00193453
0.00193459
0.00193468
0.00193479
0.0019349
0.00193503
0.00193517
0.00193537
0.00193563
0.00193596
0.00193641
0.00193703
0.00193794
0.00193931
0.0019415
0.00194494
0.00195132
0.00196494
0.00200226
0.00207487
0.0021959
0.00254589
0.00348362
0.00666494
0.00627391
0.015693
0.022301
0.0159505
0.0236654
0.045821
0.0376915
0.00460209
0.00234393
0.00207645
0.00199142
0.00196795
0.00195455
0.00194793
0.00194296
0.00193988
0.00193752
0.00193576
0.00193433
0.00193319
0.00193226
0.00193147
0.00193079
0.0019302
0.00192969
0.00192926
0.0019289
0.00192859
0.00192834
0.00192814
0.00192799
0.0019279
0.00192784
0.00189809
0.00189812
0.00189816
0.00189822
0.00189831
0.00189842
0.00189853
0.00189868
0.00189885
0.00189907
0.00189932
0.00189964
0.00190004
0.00190055
0.00190124
0.00190221
0.00190363
0.00190584
0.00190927
0.00191562
0.00192932
0.00196599
0.00203966
0.00216614
0.00251399
0.00372029
0.0057789
0.00479762
0.0110572
0.0154871
0.0187943
0.0250782
0.039136
0.0384307
0.00563195
0.00250994
0.00203716
0.00195203
0.00192965
0.00191657
0.00191038
0.00190554
0.0019026
0.00190026
0.00189854
0.00189716
0.00189609
0.00189519
0.00189444
0.0018938
0.00189324
0.00189275
0.00189234
0.00189199
0.0018917
0.00189146
0.00189127
0.00189112