/*--------------------------------*- C++ -*----------------------------------*\
  =========                 |
  \\      /  F ield         | OpenFOAM: The Open Source CFD Toolbox
   \\    /   O peration     | Website:  https://openfoam.org
    \\  /    A nd           | Version:  12
     \\/     M anipulation  |
\*---------------------------------------------------------------------------*/
FoamFile
{
    format      ascii;
    class       volScalarField;
    location    "220";
    object      nut;
}
// * * * * * * * * * * * * * * * * * * * * * * * * * * * * * * * * * * * * * //

dimensions      [0 2 -1 0 0 0 0];

internalField   nonuniform List<scalar> 
16227
(
0.000978543
0.000978543
0.000978543
0.000978543
0.000978543
0.000978543
0.000978543
0.000978543
0.000978543
0.000978543
0.000978543
0.000978543
0.000978544
0.000978544
0.000978544
0.000978544
0.000978544
0.000978544
0.000978544
0.000978544
0.000978544
0.000978544
0.000978544
0.000978544
0.000978544
0.000978544
0.000978544
0.000978544
0.000978544
0.000978544
0.000978544
0.000978544
0.000978544
0.000978544
0.000978544
0.000978544
0.000978544
0.000978544
0.000978544
0.000978544
0.000978544
0.000978544
0.000978544
0.000978544
0.000978544
0.000978544
0.000978544
0.000978544
0.000978544
0.000978544
0.000978544
0.000978543
0.000978543
0.000978543
0.000978543
0.000978543
0.000978543
0.000978543
0.000978543
0.000978543
0.000972834
0.000972834
0.000972834
0.000972834
0.000972834
0.000972834
0.000972834
0.000972834
0.000972834
0.000972834
0.000972835
0.000972835
0.000972836
0.000972836
0.000972837
0.000972836
0.000972836
0.000972836
0.000972836
0.000972836
0.000972837
0.000972837
0.000972837
0.000972837
0.000972837
0.000972837
0.000972837
0.000972837
0.000972837
0.000972836
0.000972837
0.000972837
0.000972837
0.000972837
0.000972837
0.000972837
0.000972837
0.000972837
0.000972837
0.000972837
0.000972837
0.000972837
0.000972837
0.000972837
0.000972837
0.000972836
0.000972836
0.000972836
0.000972836
0.000972836
0.000972836
0.000972836
0.000972835
0.000972835
0.000972834
0.000972834
0.000972835
0.000972834
0.000972834
0.000972834
0.000967494
0.000967494
0.000967494
0.000967494
0.000967494
0.000967495
0.000967495
0.000967495
0.000967495
0.000967495
0.000967495
0.000967495
0.000967497
0.000967498
0.000967498
0.000967498
0.000967498
0.000967498
0.000967498
0.000967497
0.000967498
0.000967498
0.000967498
0.000967498
0.000967498
0.000967498
0.000967498
0.000967498
0.000967498
0.000967498
0.000967498
0.000967498
0.000967498
0.000967498
0.000967498
0.000967498
0.000967499
0.000967498
0.000967498
0.000967498
0.000967498
0.000967498
0.000967498
0.000967498
0.000967498
0.000967498
0.000967498
0.000967498
0.000967498
0.000967498
0.000967497
0.000967495
0.000967495
0.000967495
0.000967495
0.000967495
0.000967495
0.000967494
0.000967494
0.000967494
0.000962481
0.000962481
0.000962481
0.000962481
0.000962481
0.000962482
0.000962482
0.000962482
0.000962482
0.000962482
0.000962482
0.000962482
0.000962485
0.000962485
0.000962486
0.000962486
0.000962486
0.000962486
0.000962485
0.000962484
0.000962485
0.000962485
0.000962485
0.000962486
0.000962486
0.000962486
0.000962486
0.000962486
0.000962486
0.000962485
0.000962486
0.000962486
0.000962486
0.000962486
0.000962486
0.000962487
0.000962487
0.000962487
0.000962487
0.000962487
0.000962487
0.000962487
0.000962487
0.000962487
0.000962486
0.000962486
0.000962486
0.000962486
0.000962486
0.000962486
0.000962485
0.000962483
0.000962482
0.000962482
0.000962482
0.000962482
0.000962482
0.000962481
0.000962481
0.000962481
0.00095776
0.00095776
0.00095776
0.00095776
0.00095776
0.000957761
0.000957761
0.00095776
0.00095776
0.00095776
0.00095776
0.000957761
0.000957763
0.000957765
0.000957765
0.000957765
0.000957765
0.000957764
0.000957762
0.000957761
0.000957763
0.000957764
0.000957764
0.000957764
0.000957764
0.000957764
0.000957764
0.000957764
0.000957764
0.000957763
0.000957764
0.000957765
0.000957765
0.000957765
0.000957765
0.000957766
0.000957766
0.000957766
0.000957766
0.000957766
0.000957766
0.000957766
0.000957766
0.000957766
0.000957766
0.000957766
0.000957766
0.000957766
0.000957766
0.000957765
0.000957762
0.000957761
0.000957761
0.000957761
0.000957761
0.000957762
0.000957761
0.00095776
0.00095776
0.00095776
0.0009533
0.0009533
0.0009533
0.0009533
0.0009533
0.000953301
0.000953301
0.0009533
0.0009533
0.0009533
0.0009533
0.0009533
0.000953301
0.000953304
0.000953305
0.000953305
0.000953305
0.000953303
0.000953301
0.0009533
0.000953303
0.000953303
0.000953303
0.000953303
0.000953303
0.000953303
0.000953303
0.000953303
0.000953303
0.000953303
0.000953304
0.000953304
0.000953305
0.000953305
0.000953306
0.000953306
0.000953306
0.000953307
0.000953307
0.000953307
0.000953307
0.000953307
0.000953307
0.000953308
0.000953307
0.000953307
0.000953307
0.000953307
0.000953307
0.000953305
0.000953303
0.000953301
0.000953301
0.000953301
0.000953302
0.000953302
0.000953301
0.0009533
0.0009533
0.0009533
0.000949076
0.000949076
0.000949076
0.000949076
0.000949076
0.000949076
0.000949077
0.000949077
0.000949076
0.000949076
0.000949075
0.000949075
0.000949076
0.000949078
0.00094908
0.00094908
0.000949079
0.000949076
0.000949074
0.000949074
0.000949077
0.000949077
0.000949077
0.000949077
0.000949077
0.000949077
0.000949077
0.000949077
0.000949077
0.000949077
0.000949078
0.000949079
0.000949079
0.00094908
0.000949081
0.000949081
0.000949082
0.000949083
0.000949083
0.000949084
0.000949084
0.000949084
0.000949084
0.000949084
0.000949085
0.000949085
0.000949084
0.000949084
0.000949083
0.00094908
0.000949078
0.000949077
0.000949078
0.000949078
0.000949078
0.000949078
0.000949077
0.000949077
0.000949077
0.000949077
0.000945066
0.000945066
0.000945066
0.000945066
0.000945066
0.000945066
0.000945066
0.000945066
0.000945065
0.000945064
0.000945064
0.000945063
0.000945063
0.000945064
0.000945067
0.000945068
0.000945067
0.000945063
0.000945061
0.000945061
0.000945064
0.000945064
0.000945064
0.000945063
0.000945063
0.000945063
0.000945064
0.000945064
0.000945064
0.000945063
0.000945065
0.000945066
0.000945067
0.000945068
0.000945069
0.00094507
0.000945071
0.000945072
0.000945072
0.000945073
0.000945074
0.000945074
0.000945075
0.000945075
0.000945075
0.000945075
0.000945075
0.000945075
0.000945073
0.00094507
0.000945068
0.000945067
0.000945068
0.000945068
0.000945068
0.000945068
0.000945067
0.000945067
0.000945067
0.000945067
0.00094125
0.00094125
0.00094125
0.00094125
0.00094125
0.000941249
0.00094125
0.000941249
0.000941249
0.000941247
0.000941246
0.000941245
0.000941245
0.000941245
0.000941249
0.00094125
0.000941247
0.000941243
0.000941241
0.000941241
0.000941244
0.000941244
0.000941243
0.000941243
0.000941243
0.000941243
0.000941243
0.000941243
0.000941244
0.000941243
0.000941245
0.000941247
0.000941248
0.000941249
0.000941251
0.000941252
0.000941253
0.000941255
0.000941256
0.000941257
0.000941258
0.000941258
0.000941259
0.000941259
0.00094126
0.00094126
0.00094126
0.000941259
0.000941255
0.000941253
0.000941252
0.000941252
0.000941252
0.000941253
0.000941252
0.000941252
0.000941252
0.000941251
0.000941251
0.000941251
0.000937612
0.000937612
0.000937612
0.000937611
0.000937611
0.000937611
0.000937611
0.00093761
0.000937609
0.000937608
0.000937606
0.000937605
0.000937604
0.000937604
0.000937607
0.000937608
0.000937603
0.0009376
0.000937598
0.000937598
0.0009376
0.0009376
0.0009376
0.000937599
0.000937599
0.000937599
0.000937599
0.000937599
0.0009376
0.000937599
0.000937602
0.000937604
0.000937605
0.000937607
0.000937609
0.000937611
0.000937613
0.000937615
0.000937616
0.000937618
0.000937619
0.00093762
0.000937621
0.000937621
0.000937622
0.000937622
0.000937622
0.000937621
0.000937617
0.000937615
0.000937614
0.000937614
0.000937614
0.000937614
0.000937614
0.000937614
0.000937613
0.000937613
0.000937613
0.000937613
0.000934136
0.000934136
0.000934136
0.000934135
0.000934135
0.000934135
0.000934134
0.000934133
0.000934132
0.000934131
0.000934129
0.000934127
0.000934125
0.000934125
0.000934125
0.000934127
0.000934122
0.000934119
0.000934117
0.000934117
0.000934118
0.000934118
0.000934118
0.000934117
0.000934116
0.000934116
0.000934116
0.000934117
0.000934117
0.000934117
0.00093412
0.000934123
0.000934125
0.000934127
0.00093413
0.000934132
0.000934135
0.000934137
0.000934139
0.000934141
0.000934143
0.000934144
0.000934145
0.000934146
0.000934147
0.000934147
0.000934146
0.000934144
0.000934141
0.00093414
0.000934139
0.000934139
0.000934139
0.000934139
0.000934139
0.000934139
0.000934138
0.000934138
0.000934138
0.000934137
0.00093081
0.00093081
0.00093081
0.000930809
0.000930809
0.000930808
0.000930807
0.000930806
0.000930805
0.000930803
0.000930801
0.000930799
0.000930796
0.000930794
0.000930794
0.000930795
0.000930791
0.000930788
0.000930785
0.000930784
0.000930783
0.000930784
0.000930784
0.000930783
0.000930782
0.000930782
0.000930782
0.000930783
0.000930783
0.000930784
0.000930787
0.00093079
0.000930793
0.000930796
0.000930799
0.000930802
0.000930805
0.000930808
0.000930811
0.000930814
0.000930816
0.000930818
0.000930819
0.000930821
0.000930821
0.000930821
0.000930819
0.000930817
0.000930816
0.000930814
0.000930814
0.000930814
0.000930814
0.000930814
0.000930813
0.000930813
0.000930812
0.000930812
0.000930812
0.000930812
0.000927623
0.000927623
0.000927622
0.000927622
0.000927621
0.00092762
0.000927619
0.000927617
0.000927616
0.000927613
0.000927611
0.000927608
0.000927605
0.000927602
0.0009276
0.000927598
0.000927596
0.000927593
0.00092759
0.000927588
0.000927586
0.000927588
0.000927587
0.000927586
0.000927585
0.000927584
0.000927585
0.000927585
0.000927587
0.000927587
0.000927591
0.000927595
0.000927598
0.000927602
0.000927606
0.00092761
0.000927614
0.000927618
0.000927621
0.000927625
0.000927627
0.00092763
0.000927632
0.000927633
0.000927634
0.000927633
0.000927631
0.00092763
0.000927628
0.000927627
0.000927626
0.000927626
0.000927626
0.000927626
0.000927626
0.000927626
0.000927625
0.000927624
0.000927624
0.000927624
0.000924563
0.000924563
0.000924563
0.000924562
0.000924561
0.00092456
0.000924558
0.000924556
0.000924554
0.000924552
0.000924549
0.000924545
0.000924541
0.000924538
0.000924534
0.000924531
0.00092453
0.000924526
0.000924523
0.00092452
0.000924517
0.000924518
0.000924517
0.000924515
0.000924514
0.000924514
0.000924514
0.000924515
0.000924516
0.000924517
0.000924522
0.000924526
0.000924531
0.000924536
0.000924541
0.000924546
0.000924551
0.000924555
0.000924559
0.000924563
0.000924567
0.00092457
0.000924572
0.000924574
0.000924573
0.000924572
0.000924571
0.000924571
0.000924569
0.000924568
0.000924567
0.000924567
0.000924567
0.000924567
0.000924566
0.000924566
0.000924565
0.000924565
0.000924564
0.000924564
0.000921623
0.000921623
0.000921622
0.000921621
0.00092162
0.000921618
0.000921616
0.000921614
0.000921612
0.000921608
0.000921605
0.000921601
0.000921596
0.000921592
0.000921588
0.000921584
0.000921582
0.000921578
0.000921573
0.000921569
0.000921566
0.000921567
0.000921565
0.000921563
0.000921561
0.000921561
0.000921561
0.000921562
0.000921564
0.000921566
0.000921571
0.000921576
0.000921582
0.000921588
0.000921593
0.0009216
0.000921605
0.000921611
0.000921616
0.000921621
0.000921625
0.000921628
0.000921631
0.000921632
0.000921631
0.000921631
0.00092163
0.00092163
0.000921628
0.000921627
0.000921627
0.000921626
0.000921626
0.000921626
0.000921625
0.000921625
0.000921624
0.000921623
0.000921623
0.000921623
0.000918793
0.000918792
0.000918792
0.000918791
0.000918789
0.000918787
0.000918785
0.000918783
0.00091878
0.000918776
0.000918772
0.000918767
0.000918762
0.000918757
0.000918752
0.000918747
0.000918744
0.000918739
0.000918733
0.000918729
0.000918725
0.000918724
0.000918722
0.00091872
0.000918718
0.000918717
0.000918718
0.000918719
0.000918721
0.000918724
0.00091873
0.000918736
0.000918743
0.00091875
0.000918757
0.000918764
0.000918771
0.000918778
0.000918784
0.000918789
0.000918794
0.000918798
0.000918801
0.000918802
0.000918801
0.0009188
0.0009188
0.000918799
0.000918798
0.000918797
0.000918797
0.000918796
0.000918796
0.000918795
0.000918795
0.000918794
0.000918793
0.000918792
0.000918792
0.000918792
0.000916066
0.000916066
0.000916065
0.000916063
0.000916062
0.00091606
0.000916057
0.000916054
0.000916051
0.000916047
0.000916042
0.000916036
0.000916031
0.000916024
0.000916019
0.000916013
0.000916009
0.000916003
0.000915997
0.000915991
0.000915986
0.000915982
0.000915982
0.00091598
0.000915978
0.000915977
0.000915977
0.000915979
0.000915982
0.000915985
0.000915992
0.000916
0.000916007
0.000916016
0.000916024
0.000916032
0.000916041
0.000916048
0.000916055
0.000916062
0.000916067
0.000916071
0.000916073
0.000916073
0.000916073
0.000916074
0.000916074
0.000916072
0.000916071
0.00091607
0.00091607
0.000916069
0.000916068
0.000916068
0.000916067
0.000916066
0.000916065
0.000916064
0.000916064
0.000916064
0.000913436
0.000913436
0.000913435
0.000913433
0.000913431
0.000913429
0.000913426
0.000913423
0.000913419
0.000913414
0.000913408
0.000913402
0.000913396
0.000913389
0.000913382
0.000913376
0.000913371
0.000913364
0.000913356
0.000913349
0.000913343
0.000913338
0.000913338
0.000913336
0.000913334
0.000913333
0.000913334
0.000913336
0.00091334
0.000913344
0.000913352
0.000913361
0.00091337
0.000913379
0.000913389
0.000913399
0.000913408
0.000913417
0.000913425
0.000913432
0.000913437
0.000913441
0.000913441
0.000913442
0.000913443
0.000913444
0.000913444
0.000913442
0.000913441
0.00091344
0.000913439
0.000913438
0.000913437
0.000913436
0.000913435
0.000913434
0.000913433
0.000913432
0.000913432
0.000913431
0.000910897
0.000910897
0.000910895
0.000910894
0.000910892
0.000910889
0.000910886
0.000910882
0.000910877
0.000910872
0.000910866
0.000910859
0.000910852
0.000910844
0.000910836
0.000910829
0.000910823
0.000910815
0.000910807
0.000910799
0.000910792
0.000910787
0.000910786
0.000910784
0.000910782
0.000910782
0.000910783
0.000910786
0.000910791
0.000910796
0.000910805
0.000910815
0.000910826
0.000910836
0.000910847
0.000910858
0.000910868
0.000910878
0.000910886
0.000910893
0.000910899
0.000910902
0.000910902
0.000910904
0.000910905
0.000910905
0.000910904
0.000910902
0.000910901
0.0009109
0.000910898
0.000910897
0.000910896
0.000910895
0.000910893
0.000910892
0.000910891
0.00091089
0.000910889
0.000910889
0.000908443
0.000908443
0.000908441
0.000908439
0.000908437
0.000908434
0.000908431
0.000908427
0.000908422
0.000908416
0.000908409
0.000908402
0.000908394
0.000908385
0.000908377
0.000908368
0.000908361
0.000908353
0.000908344
0.000908336
0.000908328
0.000908322
0.000908318
0.000908319
0.000908318
0.000908319
0.000908321
0.000908326
0.000908332
0.000908338
0.000908349
0.000908361
0.000908372
0.000908384
0.000908396
0.000908407
0.000908418
0.000908427
0.000908435
0.000908441
0.000908446
0.000908448
0.00090845
0.000908451
0.000908452
0.000908452
0.00090845
0.000908448
0.000908446
0.000908444
0.000908443
0.000908441
0.000908439
0.000908437
0.000908436
0.000908434
0.000908433
0.000908431
0.000908431
0.00090843
0.00090607
0.000906069
0.000906068
0.000906066
0.000906063
0.00090606
0.000906056
0.000906052
0.000906046
0.00090604
0.000906033
0.000906025
0.000906016
0.000906007
0.000905997
0.000905988
0.00090598
0.000905972
0.000905963
0.000905954
0.000905947
0.000905941
0.000905938
0.00090594
0.000905941
0.000905943
0.000905947
0.000905954
0.000905962
0.00090597
0.000905983
0.000905996
0.000906009
0.000906021
0.000906033
0.000906044
0.000906054
0.000906062
0.000906068
0.000906074
0.000906076
0.000906078
0.00090608
0.000906081
0.00090608
0.000906078
0.000906075
0.000906073
0.000906071
0.000906069
0.000906066
0.000906064
0.000906062
0.000906059
0.000906058
0.000906056
0.000906054
0.000906052
0.000906052
0.000906051
0.000903772
0.000903771
0.00090377
0.000903768
0.000903765
0.000903762
0.000903758
0.000903753
0.000903747
0.000903741
0.000903733
0.000903725
0.000903716
0.000903706
0.000903696
0.000903686
0.000903677
0.000903669
0.000903661
0.000903653
0.000903646
0.000903642
0.000903641
0.000903645
0.000903649
0.000903654
0.000903662
0.000903673
0.000903685
0.000903697
0.000903712
0.000903727
0.000903739
0.000903751
0.000903761
0.00090377
0.000903776
0.00090378
0.000903784
0.000903787
0.000903787
0.000903787
0.000903788
0.000903787
0.000903785
0.000903781
0.000903778
0.000903775
0.000903772
0.000903768
0.000903765
0.000903762
0.000903759
0.000903756
0.000903754
0.000903752
0.000903749
0.000903748
0.000903747
0.000903746
0.000901546
0.000901545
0.000901544
0.000901542
0.000901539
0.000901536
0.000901532
0.000901527
0.000901521
0.000901514
0.000901506
0.000901498
0.000901488
0.000901478
0.000901468
0.000901458
0.000901449
0.000901442
0.000901435
0.000901429
0.000901425
0.000901425
0.000901429
0.000901437
0.000901452
0.000901462
0.000901477
0.000901494
0.000901513
0.00090153
0.000901548
0.000901562
0.000901574
0.000901582
0.000901589
0.000901594
0.000901587
0.000901584
0.000901579
0.000901577
0.000901575
0.000901573
0.00090157
0.000901567
0.000901562
0.000901557
0.000901552
0.000901547
0.000901543
0.000901539
0.000901534
0.00090153
0.000901527
0.000901523
0.00090152
0.000901518
0.000901515
0.000901513
0.000901512
0.000901511
0.000899388
0.000899387
0.000899386
0.000899384
0.000899381
0.000899378
0.000899374
0.000899369
0.000899363
0.000899356
0.000899348
0.00089934
0.00089933
0.000899321
0.000899311
0.000899301
0.000899293
0.000899287
0.000899283
0.000899282
0.000899285
0.000899293
0.000899308
0.000899337
0.000900351
0.000900372
0.000900392
0.000900416
0.000900441
0.000900462
0.000900481
0.000900496
0.000900504
0.000900509
0.000900512
0.000900512
0.000899513
0.000899474
0.000899458
0.000899447
0.000899438
0.000899431
0.000899424
0.000899416
0.000899408
0.000899401
0.000899394
0.000899388
0.000899382
0.000899376
0.00089937
0.000899365
0.000899361
0.000899357
0.000899353
0.00089935
0.000899347
0.000899345
0.000899343
0.000899343
0.000897295
0.000897294
0.000897293
0.000897291
0.000897288
0.000897284
0.000897281
0.000897276
0.00089727
0.000897264
0.000897256
0.000897248
0.000897239
0.000897231
0.000897222
0.000897214
0.000897208
0.000897204
0.000897206
0.000897213
0.000897227
0.000897252
0.000897292
0.000898286
0.000898246
0.000898285
0.000898323
0.000898368
0.000898412
0.000898447
0.000898471
0.000898481
0.00089848
0.000898471
0.000898459
0.000898437
0.000898474
0.000897475
0.000897422
0.000897396
0.000897376
0.00089736
0.000897346
0.000897332
0.00089732
0.00089731
0.000897301
0.000897292
0.000897284
0.000897277
0.00089727
0.000897263
0.000897258
0.000897253
0.000897248
0.000897245
0.000897241
0.000897239
0.000897237
0.000897236
0.000895263
0.000895262
0.000895261
0.000895259
0.000895256
0.000895253
0.000895249
0.000895245
0.00089524
0.000895234
0.000895227
0.00089522
0.000895213
0.000895205
0.000895199
0.000895194
0.000895192
0.000895194
0.000895204
0.000895223
0.000895255
0.000895311
0.000895373
0.000896274
0.000896281
0.000896804
0.000896872
0.00089695
0.00089702
0.000897067
0.000897089
0.000897084
0.000897061
0.000897031
0.000897004
0.000896517
0.000896489
0.000895573
0.000895475
0.000895425
0.000895388
0.000895359
0.000895334
0.000895313
0.000895296
0.000895282
0.000895269
0.000895257
0.000895247
0.000895237
0.000895228
0.00089522
0.000895214
0.000895208
0.000895203
0.000895198
0.000895195
0.000895192
0.00089519
0.000895189
0.000893289
0.000893288
0.000893287
0.000893285
0.000893283
0.00089328
0.000893277
0.000893273
0.000893269
0.000893264
0.000893258
0.000893253
0.000893247
0.000893243
0.00089324
0.00089324
0.000893244
0.000893255
0.000893277
0.000893315
0.000893376
0.000893479
0.000893567
0.000894381
0.000894512
0.000894921
0.00089511
0.000895286
0.000895425
0.000895496
0.00089549
0.000895422
0.000895326
0.000895231
0.000895157
0.000894776
0.000894625
0.000893779
0.000893625
0.000893534
0.000893472
0.000893424
0.000893387
0.000893357
0.000893333
0.000893312
0.000893295
0.000893279
0.000893266
0.000893254
0.000893243
0.000893234
0.000893226
0.000893219
0.000893213
0.000893208
0.000893204
0.000893201
0.000893199
0.000893197
0.000891371
0.00089137
0.000891369
0.000891368
0.000891366
0.000891364
0.000891361
0.000891358
0.000891355
0.000891351
0.000891348
0.000891344
0.000891342
0.000891341
0.000891343
0.00089135
0.000891364
0.000891389
0.000891429
0.000891495
0.000891599
0.000891765
0.000891888
0.000892647
0.000892972
0.000893168
0.000893667
0.000894076
0.000894416
0.000894601
0.000894563
0.000894345
0.000894045
0.000893758
0.000893538
0.000893287
0.000892906
0.000892106
0.000891882
0.000891729
0.00089163
0.000891557
0.000891503
0.00089146
0.000891427
0.000891399
0.000891376
0.000891356
0.000891339
0.000891325
0.000891312
0.000891301
0.000891291
0.000891283
0.000891277
0.000891271
0.000891266
0.000891263
0.00089126
0.000891259
0.000889505
0.000889504
0.000889504
0.000889503
0.000889502
0.0008895
0.000889499
0.000889497
0.000889495
0.000889494
0.000889492
0.000889492
0.000889494
0.000889498
0.000889507
0.000889524
0.000889551
0.000889595
0.000889663
0.000889769
0.000889936
0.000890182
0.000890357
0.000891127
0.000891724
0.000891676
0.000892861
0.000893823
0.000894767
0.000895394
0.000895354
0.0008947
0.000893774
0.000892914
0.000892275
0.000892165
0.000891378
0.000890566
0.000890258
0.000890013
0.000889864
0.000889758
0.00088968
0.000889621
0.000889576
0.000889539
0.000889509
0.000889485
0.000889464
0.000889446
0.000889431
0.000889418
0.000889407
0.000889398
0.00088939
0.000889384
0.000889379
0.000889375
0.000889372
0.000889371
0.00088769
0.00088769
0.000887689
0.000887689
0.000887688
0.000887688
0.000887688
0.000887688
0.000887688
0.000887689
0.00088769
0.000887694
0.000887701
0.000887712
0.000887731
0.000887759
0.000887805
0.000887874
0.00088798
0.000888144
0.000888402
0.000888745
0.000889016
0.000889912
0.000890816
0.00089074
0.0008934
0.000895818
0.000898806
0.00090134
0.000901538
0.000899237
0.000896077
0.000893428
0.000891655
0.000891511
0.000890121
0.000889167
0.000888768
0.000888396
0.000888177
0.000888024
0.000887916
0.000887837
0.000887777
0.00088773
0.000887692
0.000887662
0.000887637
0.000887616
0.000887598
0.000887583
0.000887571
0.00088756
0.000887552
0.000887545
0.000887539
0.000887535
0.000887532
0.00088753
0.000885923
0.000885923
0.000885923
0.000885923
0.000885924
0.000885924
0.000885926
0.000885927
0.00088593
0.000885934
0.000885939
0.000885948
0.000885961
0.000885981
0.000886011
0.000886056
0.000886124
0.000886227
0.000886383
0.000886624
0.000887005
0.000887467
0.000887937
0.000889146
0.000890321
0.00089108
0.000896748
0.000903531
0.000914987
0.000928076
0.000930169
0.000919002
0.000905864
0.000897134
0.000892321
0.000891355
0.000889256
0.000887909
0.00088742
0.00088688
0.000886567
0.000886355
0.000886209
0.000886104
0.000886027
0.000885968
0.000885922
0.000885886
0.000885856
0.000885831
0.000885811
0.000885794
0.00088578
0.000885768
0.000885759
0.000885751
0.000885744
0.00088574
0.000885737
0.000885735
0.000884201
0.000884201
0.000884202
0.000884203
0.000884205
0.000884207
0.00088421
0.000884214
0.000884219
0.000884227
0.000884237
0.000884252
0.000884272
0.000884303
0.000884347
0.000884412
0.000884508
0.000884653
0.000884872
0.000885214
0.00088575
0.000886372
0.000887246
0.00088901
0.000890472
0.000893916
0.000905331
0.00092553
0.00045905
0.000279628
0.000274473
0.000418408
0.000911861
0.000908635
0.000895599
0.000891607
0.000888921
0.000886781
0.000886215
0.000885466
0.000885032
0.000884746
0.000884554
0.000884421
0.000884324
0.000884252
0.000884196
0.000884153
0.000884118
0.00088409
0.000884067
0.000884048
0.000884032
0.000884019
0.000884009
0.000884
0.000883993
0.000883988
0.000883985
0.000883983
0.000882523
0.000882524
0.000882525
0.000882527
0.00088253
0.000882533
0.000882538
0.000882545
0.000882554
0.000882565
0.000882581
0.000882602
0.000882632
0.000882675
0.000882735
0.000882823
0.000882954
0.000883149
0.000883447
0.000883913
0.000884638
0.000885503
0.000887111
0.000889681
0.000891907
0.000900609
0.000921116
0.000668907
0.000250324
0.000104474
0.000107617
0.000171522
0.00041392
0.000937048
0.000903648
0.000892058
0.000889236
0.00088575
0.000885139
0.000884147
0.000883565
0.000883193
0.000882949
0.000882782
0.000882664
0.000882577
0.000882512
0.000882461
0.000882421
0.00088239
0.000882364
0.000882343
0.000882326
0.000882311
0.0008823
0.000882291
0.000882283
0.000882278
0.000882275
0.000882273
0.000880887
0.000880887
0.000880889
0.000880892
0.000880896
0.000880902
0.000880909
0.000880919
0.000880931
0.000880947
0.000880969
0.000880998
0.000881038
0.000881094
0.000881173
0.000881288
0.000881457
0.000881711
0.000882101
0.000882716
0.000883664
0.000884932
0.000887724
0.00089132
0.00089592
0.000912174
0.000940581
0.000932385
0.000161987
0.0001434
0.000308596
0.000815167
0.000918362
0.000892433
0.000890252
0.000884782
0.000884163
0.000882907
0.000882155
0.000881688
0.000881387
0.000881185
0.000881043
0.000880941
0.000880866
0.000880808
0.000880763
0.000880727
0.000880699
0.000880676
0.000880657
0.000880642
0.00088063
0.00088062
0.000880613
0.000880607
0.000880604
0.000880602
0.000879289
0.00087929
0.000879293
0.000879297
0.000879302
0.00087931
0.00087932
0.000879333
0.000879349
0.00087937
0.000879398
0.000879436
0.000879487
0.000879558
0.000879657
0.000879801
0.000880013
0.000880333
0.000880824
0.000881609
0.000882822
0.000884742
0.000889241
0.000894162
0.000904742
0.000930635
0.000964559
0.000689972
0.000242608
4.46412e-05
6.76459e-05
0.000380441
0.000785172
0.000939009
0.000892869
0.000891937
0.000883899
0.000883244
0.000881734
0.000880794
0.000880227
0.000879865
0.000879626
0.00087946
0.000879343
0.000879257
0.000879192
0.000879142
0.000879103
0.000879072
0.000879047
0.000879027
0.000879011
0.000878998
0.000878988
0.00087898
0.000878974
0.00087897
0.000878968
0.000877729
0.000877731
0.000877734
0.000877739
0.000877746
0.000877756
0.000877768
0.000877785
0.000877805
0.000877832
0.000877867
0.000877913
0.000877976
0.000878062
0.000878184
0.000878358
0.000878615
0.000879003
0.000879605
0.000880571
0.0008821
0.000884977
0.000891675
0.000898505
0.000920806
0.000959026
0.00102198
0.00134931
0.000481707
0.000506877
0.000730019
0.000126602
0.000576101
0.00098289
0.000962773
0.000894826
0.000894067
0.000883161
0.000882342
0.0008806
0.000879465
0.000878799
0.000878376
0.0008781
0.000877912
0.000877779
0.000877683
0.000877611
0.000877556
0.000877514
0.00087748
0.000877454
0.000877432
0.000877415
0.000877402
0.000877391
0.000877383
0.000877377
0.000877373
0.000877371
0.000876205
0.000876207
0.000876211
0.000876217
0.000876226
0.000876238
0.000876253
0.000876273
0.000876298
0.00087633
0.000876372
0.000876428
0.000876502
0.000876604
0.000876747
0.000876952
0.000877255
0.000877712
0.000878423
0.000879577
0.000881472
0.000885579
0.000894787
0.000904413
0.000942946
0.000993362
0.00110772
0.000853673
0.00012813
0.000101506
8.04144e-05
0.000355084
0.00102078
0.00112413
0.000984011
0.000899724
0.000896229
0.00088264
0.000881435
0.000879474
0.000878152
0.000877395
0.000876915
0.000876604
0.000876394
0.000876247
0.000876141
0.000876063
0.000876004
0.000875958
0.000875922
0.000875894
0.000875872
0.000875854
0.00087584
0.000875829
0.00087582
0.000875814
0.00087581
0.000875808
0.000874714
0.000874716
0.000874721
0.000874729
0.00087474
0.000874754
0.000874772
0.000874795
0.000874825
0.000874863
0.000874912
0.000874976
0.000875063
0.00087518
0.000875344
0.000875579
0.000875924
0.000876447
0.000877261
0.000878599
0.000880888
0.000886365
0.00089806
0.00091123
0.000965411
0.00102459
0.00092192
0.000525775
8.63799e-05
4.74573e-05
7.4916e-05
0.000796626
0.00119637
0.00116614
0.000996409
0.000907765
0.000897983
0.000882367
0.000880513
0.000878325
0.000876845
0.000876006
0.000875476
0.000875134
0.000874905
0.000874745
0.00087463
0.000874546
0.000874483
0.000874434
0.000874397
0.000874367
0.000874344
0.000874325
0.000874311
0.0008743
0.000874291
0.000874285
0.000874281
0.000874278
0.000873255
0.000873258
0.000873264
0.000873273
0.000873285
0.000873302
0.000873323
0.00087335
0.000873384
0.000873428
0.000873484
0.000873557
0.000873655
0.000873787
0.00087397
0.00087423
0.000874614
0.000875198
0.000876104
0.000877611
0.000880286
0.000887093
0.000900939
0.000917883
0.000983093
0.00104228
0.000745647
0.000296245
0.000482092
7.46839e-05
0.000259638
0.00121671
0.00135782
0.00119588
0.00100173
0.000917535
0.000899129
0.000882295
0.000879564
0.000877127
0.000875534
0.000874625
0.000874056
0.000873688
0.000873441
0.00087327
0.000873148
0.000873059
0.000872992
0.000872941
0.000872902
0.000872871
0.000872847
0.000872828
0.000872814
0.000872802
0.000872793
0.000872787
0.000872783
0.00087278
0.000871827
0.000871831
0.000871837
0.000871847
0.000871862
0.00087188
0.000871905
0.000871936
0.000871974
0.000872024
0.000872087
0.000872168
0.000872276
0.00087242
0.00087262
0.000872905
0.000873323
0.000873958
0.000874939
0.000876593
0.000879612
0.000887559
0.000903013
0.000923394
0.000994835
0.00105062
0.000658067
0.000199459
0.000550476
0.000988039
0.00102023
0.0016602
0.00155101
0.001241
0.00100761
0.000925813
0.000899847
0.000882278
0.000878562
0.000875869
0.000874214
0.000873248
0.000872651
0.000872261
0.000872002
0.000871821
0.000871693
0.0008716
0.00087153
0.000871477
0.000871437
0.000871405
0.000871381
0.000871361
0.000871346
0.000871335
0.000871326
0.000871319
0.000871315
0.000871313
0.000870428
0.000870432
0.00087044
0.000870451
0.000870467
0.000870488
0.000870516
0.00087055
0.000870594
0.000870648
0.000870717
0.000870807
0.000870923
0.000871079
0.000871295
0.0008716
0.000872046
0.000872721
0.000873758
0.000875529
0.000878835
0.000887648
0.00090417
0.000927363
0.00100202
0.00105853
0.000616795
0.000161624
0.000233779
0.000960955
0.00409319
0.00458528
0.00279994
0.0013753
0.00102903
0.000928899
0.000900245
0.000882118
0.000877483
0.000874555
0.000872887
0.000871876
0.000871262
0.000870854
0.000870586
0.000870398
0.000870265
0.000870168
0.000870096
0.000870041
0.00087
0.000869968
0.000869943
0.000869923
0.000869908
0.000869896
0.000869888
0.000869881
0.000869877
0.000869875
0.000869057
0.000869061
0.00086907
0.000869082
0.000869101
0.000869124
0.000869154
0.000869193
0.00086924
0.0008693