/*--------------------------------*- C++ -*----------------------------------*\
  =========                 |
  \\      /  F ield         | OpenFOAM: The Open Source CFD Toolbox
   \\    /   O peration     | Website:  https://openfoam.org
    \\  /    A nd           | Version:  12
     \\/     M anipulation  |
\*---------------------------------------------------------------------------*/
FoamFile
{
    format      ascii;
    class       volScalarField;
    location    "220";
    object      omega;
}
// * * * * * * * * * * * * * * * * * * * * * * * * * * * * * * * * * * * * * //

dimensions      [0 0 -1 0 0 0 0];

internalField   nonuniform List<scalar> 
16227
(
9.34702
9.34704
9.34704
9.34707
9.34706
9.3471
9.34709
9.34708
9.34707
9.34709
9.34713
9.34715
9.3472
9.3472
9.3472
9.3472
9.3472
9.3472
9.3472
9.3472
9.3472
9.3472
9.3472
9.3472
9.3472
9.3472
9.3472
9.34722
9.34722
9.3472
9.34721
9.3472
9.3472
9.3472
9.34721
9.3472
9.3472
9.3472
9.3472
9.3472
9.3472
9.3472
9.3472
9.3472
9.3472
9.3472
9.3472
9.34719
9.34717
9.34717
9.34717
9.34716
9.3471
9.3471
9.34706
9.34705
9.34707
9.34705
9.34703
9.34702
8.71805
8.71808
8.71807
8.7181
8.71811
8.71814
8.71813
8.7181
8.71811
8.71812
8.71817
8.71819
8.71833
8.71839
8.7184
8.7184
8.7184
8.7184
8.7184
8.7184
8.71841
8.71842
8.71842
8.71842
8.71842
8.71843
8.71842
8.71842
8.7184
8.71836
8.71841
8.71843
8.71843
8.71843
8.71843
8.71842
8.7184
8.7184
8.71841
8.71841
8.71841
8.71841
8.71841
8.7184
8.7184
8.71838
8.71838
8.71838
8.71839
8.71837
8.71834
8.71829
8.71818
8.71817
8.71813
8.71811
8.71815
8.71807
8.71808
8.71806
8.16619
8.16621
8.16621
8.16623
8.16622
8.16631
8.16626
8.16625
8.16626
8.16626
8.16631
8.16632
8.16656
8.16662
8.16663
8.16664
8.16664
8.16663
8.16665
8.1666
8.16664
8.16665
8.16664
8.16664
8.16664
8.16664
8.16664
8.16665
8.16664
8.16658
8.16664
8.16665
8.16666
8.16666
8.16667
8.16667
8.16668
8.16667
8.16666
8.16666
8.16667
8.16667
8.16666
8.16665
8.16666
8.16666
8.16665
8.16665
8.16664
8.16662
8.16658
8.16639
8.16632
8.1663
8.16628
8.16628
8.16631
8.16622
8.16623
8.16621
7.67829
7.67831
7.67831
7.67833
7.67833
7.67839
7.67839
7.67836
7.67836
7.67835
7.6784
7.67845
7.6787
7.67877
7.67878
7.67879
7.6788
7.67881
7.67875
7.67862
7.67873
7.67877
7.67876
7.67877
7.67878
7.67878
7.67878
7.67878
7.67877
7.67869
7.67877
7.6788
7.6788
7.67881
7.67882
7.67884
7.67885
7.67885
7.67886
7.67886
7.67887
7.67887
7.67887
7.67888
7.67887
7.67887
7.67887
7.67886
7.67887
7.67884
7.67872
7.67853
7.67843
7.67845
7.67845
7.67846
7.67844
7.67837
7.67837
7.67835
7.24404
7.24405
7.24405
7.24407
7.24407
7.24412
7.24415
7.24408
7.24409
7.24408
7.24411
7.24416
7.2444
7.24452
7.24453
7.24452
7.24452
7.24449
7.24428
7.24421
7.2444
7.24447
7.24447
7.24446
7.24445
7.24445
7.24446
7.24447
7.24446
7.24438
7.24448
7.24452
7.24454
7.24456
7.24457
7.24459
7.24462
7.24464
7.24466
7.24467
7.24469
7.24471
7.2447
7.24471
7.24471
7.24472
7.24472
7.24472
7.24471
7.24463
7.24439
7.24428
7.24421
7.24423
7.24425
7.24429
7.24423
7.24416
7.24416
7.24414
6.85516
6.85518
6.85517
6.85519
6.85518
6.85522
6.85525
6.8552
6.85517
6.85515
6.85515
6.85518
6.85528
6.85555
6.8556
6.8556
6.85559
6.85548
6.85524
6.8552
6.85541
6.85547
6.85546
6.85545
6.85545
6.85546
6.85546
6.85547
6.85546
6.85539
6.8555
6.85555
6.85559
6.85563
6.85567
6.8557
6.85575
6.85578
6.85581
6.85584
6.85586
6.85588
6.8559
6.85593
6.85593
6.85594
6.85595
6.85595
6.85594
6.8558
6.85556
6.85545
6.85541
6.85545
6.85549
6.85548
6.85542
6.85536
6.85536
6.85534
6.50502
6.50503
6.50502
6.50503
6.50502
6.50505
6.50508
6.50505
6.50499
6.50497
6.50493
6.50492
6.505
6.50524
6.50535
6.50535
6.50531
6.50501
6.50488
6.50487
6.50509
6.50513
6.50511
6.5051
6.5051
6.5051
6.50511
6.50513
6.50513
6.50506
6.50519
6.50527
6.50532
6.50538
6.50544
6.5055
6.50555
6.50562
6.50567
6.50573
6.50576
6.5058
6.50584
6.50586
6.50589
6.5059
6.50591
6.50592
6.50584
6.50558
6.50545
6.50536
6.50536
6.50542
6.50542
6.50541
6.50536
6.5053
6.50531
6.50529
6.18818
6.18818
6.18817
6.18818
6.18816
6.18818
6.1882
6.18817
6.18811
6.18804
6.188
6.18793
6.18795
6.18805
6.18831
6.18837
6.18828
6.18793
6.18781
6.18779
6.188
6.18804
6.18801
6.18799
6.18798
6.18798
6.188
6.18802
6.18802
6.18797
6.18813
6.18823
6.18831
6.18839
6.18848
6.18857
6.18865
6.18873
6.18881
6.18889
6.18896
6.18901
6.18906
6.1891
6.18914
6.18916
6.18918
6.18918
6.18905
6.18879
6.18867
6.18862
6.18866
6.18869
6.18868
6.18867
6.18862
6.18857
6.18858
6.18856
5.90017
5.90017
5.90016
5.90015
5.90013
5.90013
5.90014
5.9001
5.90005
5.89996
5.89989
5.89979
5.89977
5.89982
5.90012
5.90017
5.89999
5.89964
5.89953
5.89949
5.89969
5.89971
5.89967
5.89964
5.89962
5.89962
5.89964
5.89967
5.8997
5.89965
5.89983
5.89996
5.90007
5.90019
5.90031
5.90043
5.90055
5.90067
5.90077
5.90087
5.90097
5.90106
5.90112
5.90117
5.90122
5.90127
5.90129
5.90122
5.90095
5.90082
5.90074
5.90076
5.90077
5.9008
5.90079
5.90078
5.90074
5.90069
5.90069
5.90068
5.63729
5.63729
5.63727
5.63726
5.63722
5.63721
5.63721
5.63715
5.63708
5.63701
5.6369
5.63677
5.63672
5.63676
5.63698
5.63701
5.63666
5.63642
5.63631
5.63627
5.63644
5.63645
5.63639
5.63634
5.63632
5.63632
5.63634
5.63638
5.63642
5.6364
5.63661
5.63676
5.63691
5.63707
5.63722
5.63738
5.63754
5.6377
5.63785
5.63798
5.6381
5.6382
5.63831
5.63839
5.63845
5.6385
5.63852
5.63843
5.63815
5.63803
5.63801
5.63801
5.63802
5.63804
5.63804
5.63803
5.63799
5.63795
5.63794
5.63793
5.39642
5.39642
5.3964
5.39637
5.39634
5.39631
5.39629
5.39621
5.39613
5.39604
5.39593
5.39575
5.39563
5.3956
5.39564
5.39578
5.39543
5.39521
5.39508
5.39501
5.39511
5.39513
5.39507
5.395
5.39497
5.39497
5.39499
5.39504
5.3951
5.3951
5.39534
5.39554
5.39572
5.39592
5.39613
5.39634
5.39654
5.39674
5.39693
5.3971
5.39725
5.39739
5.39751
5.39761
5.39769
5.39774
5.3977
5.39756
5.39739
5.3973
5.39729
5.39729
5.3973
5.39733
5.39732
5.39731
5.39727
5.39723
5.39723
5.39722
5.17496
5.17496
5.17493
5.1749
5.17485
5.17482
5.17476
5.17468
5.17457
5.17445
5.17432
5.17414
5.17397
5.17386
5.17383
5.17391
5.17361
5.17338
5.17319
5.17308
5.17301
5.17311
5.17307
5.17299
5.17295
5.17294
5.17297
5.17303
5.17311
5.17314
5.17342
5.17366
5.17389
5.17414
5.1744
5.17466
5.17491
5.17516
5.17539
5.1756
5.1758
5.17597
5.17612
5.17625
5.17634
5.17637
5.17623
5.17616
5.17607
5.17599
5.17598
5.17599
5.176
5.17602
5.17601
5.17601
5.17597
5.17592
5.17592
5.17591
4.97068
4.97067
4.97064
4.97061
4.97055
4.97049
4.97042
4.97032
4.97019
4.97004
4.96989
4.96968
4.96948
4.96927
4.96913
4.96902
4.96888
4.96868
4.96846
4.96829
4.96814
4.96825
4.9682
4.9681
4.96804
4.96803
4.96806
4.96813
4.96824
4.9683
4.96861
4.9689
4.96919
4.9695
4.96981
4.97014
4.97045
4.97075
4.97104
4.9713
4.97153
4.97175
4.97192
4.97207
4.97216
4.97217
4.97206
4.97204
4.97194
4.97187
4.97187
4.97188
4.97189
4.9719
4.9719
4.97188
4.97184
4.9718
4.9718
4.97179
4.78169
4.78169
4.78165
4.78159
4.78152
4.78145
4.78136
4.78124
4.78108
4.78092
4.78072
4.78049
4.78026
4.78002
4.77977
4.7796
4.77946
4.77923
4.77897
4.77875
4.77856
4.77864
4.77854
4.77842
4.77834
4.77832
4.77835
4.77844
4.77857
4.77867
4.77903
4.77937
4.77972
4.78009
4.78048
4.78087
4.78125
4.78161
4.78196
4.78228
4.78255
4.7828
4.78301
4.78317
4.78322
4.78319
4.78319
4.78317
4.7831
4.78306
4.78305
4.78306
4.78306
4.78307
4.78306
4.78305
4.78301
4.78297
4.78297
4.78295
4.60636
4.60635
4.6063
4.60624
4.60616
4.60607
4.60596
4.60581
4.60564
4.60544
4.60522
4.60495
4.60468
4.60439
4.60411
4.60388
4.6037
4.60341
4.6031
4.60282
4.60258
4.60261
4.60248
4.60232
4.60222
4.60219
4.60222
4.60233
4.60248
4.60262
4.60303
4.60344
4.60386
4.60431
4.60477
4.60523
4.60569
4.60613
4.60653
4.60691
4.60723
4.60752
4.60776
4.6079
4.60787
4.60793
4.60796
4.60797
4.60793
4.60789
4.6079
4.6079
4.6079
4.6079
4.60788
4.60787
4.60783
4.6078
4.60779
4.60777
4.44327
4.44325
4.44321
4.44314
4.44304
4.44294
4.44281
4.44264
4.44244
4.44221
4.44194
4.44164
4.44133
4.441
4.44067
4.4404
4.44014
4.43981
4.43943
4.43909
4.43881
4.43871
4.43858
4.4384
4.43827
4.43822
4.43826
4.43838
4.43856
4.43874
4.43921
4.43969
4.44019
4.44072
4.44127
4.44183
4.44236
4.44288
4.44335
4.44379
4.44416
4.4445
4.44476
4.44488
4.44489
4.44496
4.44502
4.445
4.44497
4.44497
4.44498
4.44498
4.44498
4.44498
4.44496
4.44494
4.44489
4.44486
4.44485
4.44483
4.29122
4.29119
4.29114
4.29106
4.29096
4.29084
4.29069
4.29049
4.29026
4.29
4.28971
4.28936
4.28901
4.28863
4.28825
4.28791
4.28761
4.28719
4.28676
4.28633
4.28597
4.28569
4.28561
4.28543
4.28527
4.2852
4.28523
4.28536
4.28558
4.28582
4.28635
4.28691
4.2875
4.28813
4.28878
4.28943
4.29006
4.29066
4.29121
4.2917
4.29215
4.2925
4.29272
4.29283
4.29294
4.29305
4.29312
4.2931
4.29308
4.2931
4.2931
4.2931
4.29308
4.29308
4.29306
4.29302
4.29298
4.29294
4.29293
4.29291
4.14913
4.1491
4.14904
4.14895
4.14883
4.1487
4.14853
4.1483
4.14805
4.14776
4.14743
4.14705
4.14664
4.14621
4.14577
4.14537
4.14499
4.14453
4.14401
4.1435
4.14305
4.14266
4.14255
4.14234
4.14214
4.14204
4.14207
4.14221
4.14246
4.14276
4.14337
4.14402
4.14472
4.14546
4.14622
4.14698
4.14772
4.14841
4.14904
4.14961
4.15009
4.15046
4.15061
4.15081
4.15098
4.15113
4.15119
4.15118
4.15117
4.15118
4.15119
4.15117
4.15115
4.15113
4.15111
4.15107
4.15102
4.15098
4.15096
4.15095
4.01607
4.01604
4.01597
4.01588
4.01575
4.01559
4.01541
4.01516
4.01488
4.01455
4.01419
4.01376
4.01331
4.01282
4.01232
4.01185
4.01139
4.01085
4.01026
4.00967
4.00913
4.00867
4.00843
4.00818
4.00794
4.00782
4.00783
4.00799
4.00828
4.00865
4.00934
4.01009
4.01091
4.01178
4.01267
4.01356
4.01441
4.0152
4.01592
4.01654
4.01708
4.01746
4.01765
4.01789
4.01809
4.01823
4.01827
4.01827
4.01829
4.0183
4.01829
4.01827
4.01824
4.01822
4.01817
4.01813
4.01807
4.01803
4.01801
4.01799
3.89123
3.89119
3.89112
3.89102
3.89087
3.89071
3.8905
3.89023
3.88992
3.88956
3.88916
3.88869
3.88819
3.88765
3.88708
3.88652
3.88597
3.88536
3.88469
3.88402
3.88336
3.88279
3.88233
3.88211
3.88186
3.88169
3.88169
3.88186
3.8822
3.88264
3.88343
3.88431
3.88527
3.88628
3.88732
3.88835
3.88932
3.89023
3.89101
3.89167
3.89221
3.89261
3.89293
3.89321
3.89344
3.89356
3.89359
3.8936
3.89362
3.89363
3.89361
3.89357
3.89353
3.89349
3.89344
3.89338
3.89333
3.89327
3.89325
3.89323
3.77387
3.77384
3.77376
3.77365
3.77349
3.77331
3.77308
3.77279
3.77245
3.77206
3.77162
3.77111
3.77056
3.76996
3.76931
3.76864
3.768
3.76733
3.76658
3.76581
3.76506
3.76435
3.76376
3.76349
3.76316
3.76295
3.76293
3.76311
3.76349
3.76401
3.76492
3.76594
3.76707
3.76825
3.76946
3.77065
3.77176
3.77275
3.77361
3.77434
3.77487
3.77534
3.77574
3.77606
3.77627
3.77636
3.7764
3.77643
3.77645
3.77643
3.7764
3.77635
3.77629
3.77623
3.77617
3.77611
3.77604
3.77599
3.77596
3.77594
3.66337
3.66333
3.66325
3.66313
3.66296
3.66276
3.66251
3.66221
3.66184
3.66142
3.66094
3.6604
3.65979
3.65913
3.65842
3.65766
3.65691
3.65617
3.65532
3.65443
3.65355
3.65274
3.65202
3.6516
3.65121
3.65093
3.65088
3.65107
3.65151
3.65213
3.65317
3.65437
3.65568
3.65707
3.65847
3.65984
3.66107
3.66216
3.66312
3.66393
3.66451
3.66503
3.66546
3.66578
3.66597
3.66605
3.66609
3.66612
3.66611
3.66608
3.66602
3.66595
3.66588
3.66581
3.66573
3.66566
3.66558
3.66552
3.66549
3.66546
3.55914
3.5591
3.55901
3.55888
3.55871
3.5585
3.55823
3.5579
3.55752
3.55707
3.55656
3.55596
3.55532
3.5546
3.55381
3.55298
3.55213
3.55126
3.55032
3.54931
3.5483
3.54734
3.5465
3.54585
3.5455
3.54514
3.54504
3.54524
3.54574
3.54646
3.54766
3.54907
3.55061
3.55223
3.55386
3.55543
3.55672
3.55792
3.55891
3.55978
3.56049
3.56106
3.5615
3.56178
3.56193
3.56202
3.56206
3.56207
3.56205
3.56199
3.56191
3.56182
3.56172
3.56163
3.56154
3.56145
3.56137
3.5613
3.56126
3.56123
3.46068
3.46064
3.46055
3.46041
3.46023
3.46
3.45973
3.45938
3.45897
3.4585
3.45795
3.45732
3.45663
3.45585
3.45501
3.45408
3.4531
3.4521
3.45107
3.44996
3.44881
3.4477
3.4467
3.44609
3.49389
3.49354
3.49341
3.4936
3.49413
3.49491
3.49619
3.49772
3.4994
3.50117
3.50295
3.50463
3.459
3.45957
3.46065
3.46158
3.46234
3.46293
3.46334
3.46357
3.4637
3.46378
3.46381
3.4638
3.46374
3.46365
3.46354
3.46343
3.4633
3.4632
3.46309
3.46299
3.46289
3.46282
3.46277
3.46274
3.36754
3.36749
3.3674
3.36726
3.36707
3.36683
3.36654
3.36618
3.36576
3.36526
3.36468
3.36402
3.36328
3.36245
3.36154
3.36053
3.35944
3.3583
3.35714
3.35594
3.35466
3.35339
3.3525
3.3973
3.39496
3.39466
3.39443
3.3946
3.39518
3.39609
3.39758
3.39938
3.40136
3.40346
3.40555
3.40743
3.4111
3.3674
3.36792
3.36886
3.36962
3.37018
3.37054
3.37073
3.37083
3.37089
3.37088
3.37083
3.37073
3.37061
3.37047
3.37032
3.37017
3.37004
3.36991
3.3698
3.36969
3.36961
3.36956
3.36952
3.2793
3.27924
3.27915
3.27901
3.27881
3.27857
3.27827
3.2779
3.27746
3.27694
3.27634
3.27565
3.27487
3.27399
3.27302
3.27194
3.27076
3.2695
3.26821
3.26687
3.26545
3.26404
3.26319
3.30375
3.30151
3.32372
3.32349
3.32364
3.32426
3.32526
3.3269
3.32891
3.33115
3.33353
3.33591
3.31627
3.31944
3.28029
3.28031
3.28121
3.28191
3.2824
3.28268
3.28283
3.2829
3.28291
3.28285
3.28275
3.2826
3.28244
3.28226
3.28209
3.28191
3.28176
3.28161
3.28148
3.28136
3.28127
3.28121
3.28117
3.19559
3.19554
3.19544
3.1953
3.1951
3.19485
3.19454
3.19416
3.19371
3.19318
3.19256
3.19184
3.19103
3.19012
3.18909
3.18795
3.18669
3.18533
3.18388
3.18238
3.18085
3.17934
3.17854
3.21511
3.2131
3.23287
3.23288
3.23306
3.23372
3.23487
3.23663
3.23887
3.24146
3.24424
3.24696
3.23076
3.23287
3.19799
3.1975
3.19825
3.19884
3.1992
3.19941
3.19951
3.19953
3.19947
3.19935
3.19919
3.19899
3.19878
3.19857
3.19836
3.19815
3.19797
3.1978
3.19766
3.19753
3.19742
3.19736
3.19732
3.11608
3.11603
3.11594
3.11579
3.11559
3.11534
3.11503
3.11464
3.11419
3.11364
3.11301
3.11228
3.11144
3.1105
3.10943
3.10824
3.10691
3.10546
3.10389
3.10224
3.10057
3.09899
3.09827
3.13126
3.12942
3.14661
3.14725
3.14765
3.14859
3.15003
3.15202
3.15447
3.15727
3.16026
3.16331
3.15019
3.1513
3.12021
3.11918
3.11967
3.12008
3.12032
3.12043
3.12045
3.12038
3.12023
3.12004
3.11981
3.11955
3.1193
3.11904
3.11879
3.11856
3.11835
3.11816
3.11799
3.11785
3.11774
3.11767
3.11762
3.04048
3.04042
3.04033
3.04018
3.03999
3.03974
3.03943
3.03904
3.03858
3.03804
3.0374
3.03665
3.03581
3.03484
3.03375
3.03252
3.03114
3.02963
3.02798
3.02622
3.02443
3.02277
3.02217
3.05202
3.05044
3.06528
3.06691
3.0682
3.0702
3.07267
3.07508
3.07731
3.07959
3.08207
3.08487
3.07479
3.0746
3.04666
3.04506
3.04516
3.04537
3.04545
3.04543
3.04532
3.04513
3.04488
3.0446
3.0443
3.04398
3.04367
3.04337
3.04308
3.04282
3.04258
3.04237
3.04219
3.04204
3.04191
3.04184
3.04179
2.9685
2.96844
2.96835
2.96821
2.96801
2.96777
2.96746
2.96708
2.96662
2.96608
2.96545
2.9647
2.96385
2.96288
2.96178
2.96053
2.95913
2.95758
2.95589
2.95409
2.95226
2.95054
2.9501
2.97735
2.97606
2.98908
2.99357
2.99731
3.00355
3.01048
3.01411
3.01368
3.01191
3.01133
3.01208
3.00447
3.00265
2.97711
2.97498
2.97458
2.97448
2.97433
2.9741
2.97382
2.9735
2.97314
2.97276
2.97238
2.972
2.97164
2.97128
2.97096
2.97066
2.9704
2.97017
2.96997
2.9698
2.96967
2.96959
2.96954
2.89989
2.89984
2.89975
2.89961
2.89942
2.89918
2.89888
2.89851
2.89807
2.89754
2.89691
2.89618
2.89534
2.89438
2.89328
2.89203
2.89064
2.88909
2.88741
2.88563
2.88386
2.88217
2.88209
2.90731
2.90629
2.9199
2.93018
2.94285
2.96808
3.00015
3.00948
2.98972
2.96616
2.95233
2.94651
2.93914
2.93548
2.9113
2.9087
2.90764
2.90712
2.90664
2.90617
2.9057
2.90522
2.90474
2.90426
2.9038
2.90335
2.90293
2.90253
2.90217
2.90184
2.90155
2.9013
2.90108
2.9009
2.90076
2.90067
2.90062
2.83443
2.83438
2.83429
2.83416
2.83398
2.83375
2.83347
2.83311
2.83268
2.83217
2.83156
2.83085
2.83003
2.82909
2.82802
2.82681
2.82545
2.82395
2.82233
2.82065
2.81906
2.81756
2.8184
2.8423
2.8415
2.86026
2.88219
2.9255
3.05967
3.3188
3.36357
3.14797
2.98364
2.91622
2.89152
2.87822
2.87312
2.84905
2.84593
2.84406
2.84299
2.84213
2.84138
2.8407
2.84005
2.83944
2.83886
2.83831
2.8378
2.83732
2.83688
2.83647
2.83611
2.8358
2.83553
2.8353
2.8351
2.83496
2.83486
2.8348
2.77191
2.77186
2.77178
2.77166
2.77149
2.77127
2.771
2.77066
2.77025
2.76976
2.76919
2.76851
2.76773
2.76683
2.76581
2.76465
2.76336
2.76195
2.76045
2.75897
2.75767
2.75662
2.75917
2.78266
2.78343
2.81273
2.85329
2.98854
3.72198
8.06427
8.02977
4.61118
3.2187
2.92583
2.85171
2.82128
2.81575
2.7899
2.7863
2.7835
2.78181
2.78053
2.77947
2.77857
2.77775
2.77701
2.77633
2.7757
2.77512
2.77459
2.7741
2.77367
2.77328
2.77294
2.77265
2.77241
2.7722
2.77205
2.77195
2.77189
2.71214
2.71209
2.71201
2.7119
2.71174
2.71154
2.71129
2.71097
2.71059
2.71014
2.7096
2.70896
2.70823
2.70739
2.70643
2.70536
2.70417
2.7029
2.7016
2.7004
2.69952
2.69934
2.70464
2.72848
2.73461
2.77904
2.83866
3.14536
11.1689
15.2699
3.96302
3.00005
2.83094
2.76723
2.76283
2.73342
2.7294
2.72564
2.72328
2.72156
2.7202
2.71907
2.71809
2.71722
2.71644
2.71574
2.7151
2.71452
2.714
2.71354
2.71313
2.71277
2.71247
2.71221
2.712
2.71185
2.71175
2.71169
2.65493
2.65489
2.65482
2.65472
2.65457
2.65439
2.65416
2.65387
2.65352
2.6531
2.65261
2.65202
2.65135
2.65059
2.64972
2.64875
2.6477
2.64661
2.64556
2.64474
2.64442
2.64573
2.65493
2.67996
2.69932
2.76256
2.86151
4.16734
58.3465
885.875
65.3851
4.62877
3.10104
2.82522
2.71589
2.71375
2.67937
2.67491
2.67026
2.66722
2.66507
2.66341
2.66207
2.66093
2.65995
2.65908
2.65831
2.65762
2.657
2.65644
2.65595
2.65552
2.65515
2.65483
2.65457
2.65435
2.65419
2.65408
2.65402
2.60014
2.6001
2.60004
2.59995
2.59982
2.59966
2.59945
2.59919
2.59888
2.5985
2.59806
2.59753
2.59693
2.59625
2.59549
2.59465
2.59376
2.59289
2.59214
2.59176
2.59215
2.59569
2.60985
2.63755
2.68195
2.77046
3.34939
30.1325
247.049
280.322
317.187
39.6943
4.84075
3.17966
2.82562
2.66963
2.66725
2.62749
2.62242
2.61701
2.61333
2.6108
2.60888
2.60736
2.60609
2.605
2.60406
2.60323
2.60249
2.60183
2.60125
2.60073
2.60028
2.5999
2.59957
2.5993
2.59907
2.59891
2.5988
2.59874
2.5476
2.54757
2.54752
2.54744
2.54733
2.54718
2.54701
2.54678
2.54651
2.54618
2.54579
2.54533
2.54481
2.54422
2.54357
2.54287
2.54217
2.54152
2.54109
2.54118
2.54244
2.54882
2.56855
2.60088
2.67951
2.81535
7.35823
113.512
268.11
290.329
253.201
17.2417
4.66279
3.20435
2.8177
2.63065
2.62176
2.57759
2.5716
2.56559
2.5614
2.55856
2.55643
2.55476
2.55338
2.55222
2.55121
2.55033
2.54956
2.54887
2.54826
2.54773
2.54727
2.54687
2.54654
2.54626
2.54603
2.54586
2.54575
2.54569
2.49719
2.49716
2.49712
2.49705
2.49696
2.49684
2.49669
2.4965
2.49627
2.49599
2.49566
2.49527
2.49483
2.49434
2.4938
2.49324
2.4927
2.49227
2.49217
2.49278
2.49506
2.50455
2.52966
2.56821
2.68112
2.9381
14.7821
154.62
176.387
161.392
92.617
9.15617
4.36096
3.18235
2.78775
2.5985
2.57598
2.52948
2.52222
2.51574
2.51121
2.50816
2.50589
2.50411
2.50266
2.50144
2.5004
2.49948
2.49868
2.49798
2.49736
2.49681
2.49634
2.49594
2.4956
2.49531
2.49508
2.49491
2.4948
2.49473
2.44877
2.44874
2.44871
2.44866
2.44858
2.44849
2.44837
2.44822
2.44803
2.4478
2.44753
2.44722
2.44686
2.44645
2.44602
2.44556
2.44519
2.44503
2.44527
2.4464
2.44967
2.46207
2.49166
2.53682
2.6758
3.0971
19.859
154.04
99.6575
62.363
28.7014
6.55963
4.13125
3.14334
2.74056
2.56918
2.52948
2.48301
2.47418
2.46731
2.46263
2.45947
2.45713
2.4553
2.45381
2.45256
2.45149
2.45056
2.44974
2.44903
2.4484
2.44785
2.44737
2.44697
2.44662
2.44634
2.44611
2.44593
2.44582
2.44576
2.40222
2.4022
2.40218
2.40214
2.40209
2.40202
2.40193
2.40181
2.40167
2.40149
2.40129
2.40104
2.40075
2.4004
2.40006
2.39978
2.39961
2.3997
2.40023
2.40181
2.40592
2.4207
2.45342
2.50435
2.65793
3.17807
20.233
141.116
97.4973
27.259
10.8789
5.64844
4.06863
3.13594
2.69409
2.53639
2.48274
2.43769
2.42734
2.42016
2.41552
2.41232
2.41
2.4082
2.40672
2.40546
2.40438
2.40345
2.40263
2.40191
2.40128
2.40073
2.40026
2.39985
2.39951
2.39922
2.39899
2.39882
2.39871
2.39865
2.35744
2.35743
2.35742
2.35739
2.35736
2.35731
2.35726
2.35718
2.35708
2.35695
2.35679
2.3566
2.35637
2.35612
2.35592
2.35579
2.35579
2.35607
2.35683
2.35876
2.36354
2.37997
2.41454
2.46969
2.62816
3.15729
18.1939
118.662
114.416
38.8075
11.4454
6.53395
4.73954
3.259
2.67769
2.49281
2.43652
2.39341
2.38172
2.37433
2.36992
2.36679
2.3645
2.3627
2.36126
2.36003
2.35897
2.35804
2.35723
2.35652
2.3559
2.35535
2.35488
2.35448
2.35414
2.35386
2.35363
2.35346
2.35336
2.35329
2.31433
2.31432
2.31432
2.31431
2.31429
2.31428
2.31425
2.31421
2.31415
2.31406
2.31393
2.31379
2.31365
2.31353
2.31344
2.31343
2.31356
2.314
2.31494
2.31711
2.32236
2.33971
2.37508
2.4324
2.59219
3.11437
15.228
92.1631
119.022
64.8134
23.7905
9.91055
6.75238
4.16353
2.72417
2.44111
2.39148
2.34978
2.33739
2.32995
2.32576
2.32273
2.32056
2.31878
2.31735
2.31616
2.31515
2.31426
2.31347
2.31277
2.31216
2.31162
2.31116
2.31077
2.31043
2.31016
2.30994
2.30977
2.30966
2.3096
2.27279
2.27279
2.27279
2.2728
2.2728
2.27281
2.27281
2.2728
2.27278
2.27272
2.27264
2.27259
2.27254
2.2725
2.27251
2.27259
2.27283
2.27338
2.27444
2.27673
2.28228
2.29992
2.33546
2.39394
2.55329
3.08151
12.3468
71.0335
111.331
86.9726
46.9856
20.9957
9.34645
5.51401
2.85732
2.40855
2.34797
2.30672
2.29429
2.28701
2.28309
2.2801
2.27807
2.27638
2.27499
2.27382
2.27284
2.272
2.27124
2.27057
2.26997
2.26945
2.269
2.26862
2.26829
2.26802
2.26781
2.26764
2.26754
2.26748
2.23273
2.23274
2.23275
2.23277
2.23279
2.23282
2.23285
2.23287
2.23287
2.23286
2.23286
2.23287
2.2329
2.23294
2.23302
2.23319
2.23351
2.23414
2.23525
2.23757
2.24331
2.26077
2.29637
2.35602
2.51348
3.07891
9.96523
53.8718
94.8959
94.7134
69.3893
37.2461
14.0742
6.23003
3.0488
2.423
2.30553
2.26447
2.25249
2.24544
2.24185
2.23894
2.23697
2.23537
2.23406
2.23294
2.23199
2.23118
2.23047
2.22983
2.22926
2.22876
2.22832
2.22795
2.22763
2.22738
2.22717
2.22701
2.22691
2.22685
2.19408
2.19409
2.19411
2.19415
2.19419
2.19423
2.19427
2.19431
2.19436
2.19442
2.19448
2.19455
2.19464
2.19475
2.1949
2.19514
2.19552
2.1962
2.19733
2.19966
2.20545
2.22252
2.25845
2.31967
2.4744
3.12413
8.20154
40.0746
77.3076
90.9944
78.691
47.6271
17.6278
6.4625
3.18831
2.46766
2.26382
2.22334
2.21207
2.20526
2.20195
2.19916
2.1973
2.19573
2.19447
2.19339
2.19252
2.19175
2.19107
2.19048
2.18994
2.18946
2.18905
2.18869
2.18839
2.18814
2.18794
2.18779
2.18769
2.18764
2.15675
2.15677
2.1568
2.15685
2.1569
2.15696
2.15702
2.15711
2.1572
2.15731
2.15742
2.15755
2.15769
2.15786
2.15808
2.15837
2.15881
2.15951
2.16063
2.16298
2.16874
2.18551
2.22246
2.28576
2.43895
3.2269
7.06378
29.7931
62.7812
82.7798
78.255
48.9879
17.8904
6.31944
3.2263
2.50509
2.22303
2.18357
2.17302
2.16642
2.16338
2.16069
2.15896
2.15745
2.15625
2.15522
2.15436
2.15365
2.15301
2.15245
2.15195
2.1515
2.15111
2.15077
2.15048
2.15024
2.15005
2.14991
2.14981
2.14976
2.12069
2.12071
2.12075
2.1208
2.12086
2.12094
2.12105
2.12117
2.1213
2.12145
2.12161
2.12179
2.12199
2.12222
2.12249
2.12284
2.1233
2.12402
2.12517
2.12754
2.13327
2.15002
2.18871
2.25478
2.41344
3.39769
6.78263
24.805
57.4087
78.0344
72.0992
44.5538
16.0833
6.02209
3.20818
2.51295
2.18345
2.14524
2.1353
2.12888
2.12607
2.12348
2.12186
2.12042
2.1193
2.11833
2.1175
2.1168
2.11621
2.11568
2.11522
2.11481
2.11444
2.11412
2.11385
2.11362
2.11344
2.1133
2.11321
2.11317
2.08581
2.08584
2.08589
2.08594
2.08602
2.08613
2.08626
2.08641
2.08658
2.08677
2.08698
2.08721
2.08746
2.08775
2.08808
2.08848
2.08897
2.08975
2.09093
2.09334
2.09912
2.11618
2.15674
2.22587
2.40704
3.85584
8.34116
31.474
59.7836
73.697
63.9099
37.7004
13.6142
5.67208
3.1669
2.48939
2.14523
2.10832
2.09884
2.09257
2.08997
2.08747
2.08596
2.0846
2.08355
2.08264
2.08186
2.08118
2.08061
2.08013
2.07969
2.07931
2.07898
2.07868
2.07842
2.07821
2.07804
2.07791
2.07783
2.07778
2.05207
2.0521
2.05215
2.05222
2.05232
2.05245
2.05261
2.05279
2.05299
2.05322
2.05347
2.05374
2.05405
2.05439
2.05478
2.05523
2.05578
2.05664
2.05786
2.06037
2.06631
2.08391
2.12571
2.19791
2.4557
4.60435
14.0718
41.1448
62.5154
67.8173
54.8494
30.4613
11.3
5.32493
3.1195
2.44502
2.1084
2.07273
2.06359
2.05745
2.05504
2.05262
2.05122
2.04993
2.04895
2.0481
2.04737
2.04674
2.04619
2.04571
2.04532
2.04497
2.04466
2.04439
2.04416
2.04396
2.0438
2.04368
2.0436
2.04356
2.0194
2.01944
2.01949
2.01957
2.01969
2.01984
2.02002
2.02023
2.02047
2.02073
2.02103
2.02135
2.0217
2.0221
2.02254
2.02304
2.02368
2.02463
2.02592
2.02856
2.03474
2.05289
2.09494
2.16989
2.57275
5.37632
20.7711
47.2869
62.2089
60.3285
45.2359
23.9252
9.41677
5.00309
3.07375
2.3926
2.07291
2.03838
2.02949
2.02348
2.02122
2.01888
2.01758
2.01636
2.01544
2.01465
2.01398
2.0134
2.01289
2.01244
2.01205
2.01173
2.01145
2.0112
2.01099
2.01081
2.01066
2.01054
2.01047
2.01044
1.98775
1.98779
1.98785
1.98795
1.98808
1.98825
1.98845
1.98869
1.98896
1.98926
1.98959
1.98996
1.99037
1.99082
1.99132
1.99189
1.99262
1.99365
1.99505
1.99783
2.00428
2.02284
2.06417
2.14131
2.70724
5.90595
24.8614
49.603
59.1829
52.1978
35.9778
18.5427
7.96328
4.71098
3.03206
2.34257
2.03869
2.00513
1.99651
1.99061
1.98847
1.98621
1.985
1.98385
1.983
1.98227
1.98165
1.98111
1.98064
1.98022
1.97986
1.97955
1.97929
1.97907
1.97888
1.97871
1.97857
1.97847
1.9784
1.97837
1.95707
1.95712
1.95719
1.9573
1.95744
1.95763
1.95785
1.95811
1.95841
1.95875
1.95912
1.95953
1.95999
1.96048
1.96103
1.9617
1.96252
1.96366
1.96517
1.96811
1.97477
1.9935
2.03344
2.11141
2.79962
6.06785
25.8342
49.1624
55.3274
45.113
28.416
14.4245
6.85811
4.44483
2.99769
2.30419
2.00569
1.97281
1.96462
1.95883
1.95675
1.95459
1.95344
1.95236
1.95157
1.9509
1.95033
1.94983
1.9494
1.94902
1.94869
1.94839
1.94814
1.94794
1.94777
1.94762
1.9475
1.9474
1.94733
1.94731
1.92732
1.92738
1.92745
1.92757
1.92773
1.92793
1.92817
1.92846
1.92878
1.92915
1.92956
1.93001
1.93051
1.93105
1.93168
1.93243
1.93334
1.93458
1.93621
1.93929
1.94611
1.96475
2.00297
2.07968
2.84159
5.94337
24.5206
47.1718
51.9672
40.4479
23.5566
11.6763
6.04673
4.20539
2.9732
2.2888
1.97392
1.94125
1.93375
1.92813
1.92604
1.92397
1.92287
1.92187
1.92113
1.92051
1.91998
1.91953
1.91913
1.91879
1.91848
1.91821
1.91797
1.91778
1.91762
1.91749
1.91738
1.91729
1.91723
1.91721
1.89845
1.89851
1.89859
1.89872
1.89889
1.89911
1.89937
1.89967
1.90003
1.90042
1.90087
1.90136
1.9019
1.90249
1.90319
1.90402
1.90501
1.90635
1.90811
1.9113
1.91828
1.93667
1.9732
2.04718
2.85334
5.69923
22.2306
44.0905
49.1864
38.4464
21.6926
10.4471
5.63897
4.04474
2.97151
2.3067
1.94375
1.91058
1.90388
1.89852
1.89631
1.89434
1.89326
1.89232
1.89163
1.89106
1.89057
1.89016
1.8898
1.88948
1.8892
1.88895
1.88873
1.88855
1.88839
1.88828
1.88818
1.8881
1.88805
1.88803
1.87042
1.87049
1.87058
1.87071
1.87089
1.87112
1.8714
1.87173
1.8721
1.87252
1.873
1.87353
1.8741
1.87476
1.87552
1.87642
1.8775
1.87892
1.88081
1.88409
1.89118
1.90918
1.94417
2.01489
2.84331
5.39787
19.7839
40.4312
46.3672
37.9311
22.3599
10.733
5.74134
4.08134
3.0709
2.33686
1.91738
1.88129
1.87493
1.86995
1.86756
1.86566
1.86459
1.8637
1.86305
1.86252
1.86207
1.86169
1.86136
1.86107
1.86081
1.86058
1.86038
1.86021
1.86006
1.85995
1.85986
1.85979
1.85975
1.85974
1.8432
1.84327
1.84336
1.8435
1.84369
1.84394
1.84423
1.84457
1.84497
1.84542
1.84592
1.84648
1.84709
1.84781
1.84863
1.84959
1.85074
1.85224
1.85425
1.85758
1.86476
1.88226
1.91588
1.98294
2.81506
5.85403
18.9511
36.6795
42.5917
36.1751
22.7158
11.425
5.97788
4.1
3.18079
2.3702
1.89747
1.85406
1.84693
1.84236
1.83976
1.83791
1.83682
1.83597
1.83535
1.83485
1.83444
1.83409
1.83378
1.83351
1.83328
1.83307
1.83288
1.83273
1.83259
1.83247
1.83239
1.83233
1.83229
1.83229
1.81674
1.81681
1.81691
1.81706
1.81726
1.81751
1.81782
1.81818
1.81859
1.81906
1.81959
1.82017
1.82083
1.82159
1.82246
1.82348
1.8247
1.82627
1.82837
1.83173
1.83895
1.85588
1.88818
2.01524
2.75987
5.51522
16.8921
33.3373
40.0895
35.9694
24.3486
13.0047
6.64092
4.2621
3.29463
2.42155
1.85912
1.82877
1.82002
1.81566
1.81288
1.81104
1.80992
1.80911
1.8085
1.80803
1.80764
1.80732
1.80703
1.80678
1.80656
1.80637
1.8062
1.80605
1.80592
1.80582
1.80573
1.80567
1.80565
1.80564
1.79101
1.79109
1.79119
1.79134
1.79155
1.79181
1.79213
1.79251
1.79294
1.79343
1.79398
1.79458
1.79528
1.79608
1.79699
1.79805
1.79934
1.80096
1.80314
1.80651
1.81371
1.83006
1.8612
1.98645
3.10333
7.02175
18.3791
31.4328
36.724
32.8776
23.1202
13.1652
6.96738
4.35787
3.22847
2.29389
1.86304
1.80655
1.79438
1.78983
1.78688
1.78504
1.78387
1.78307
1.78248
1.78202
1.78165
1.78134
1.78108
1.78084
1.78064
1.78046
1.78029
1.78016
1.78004
1.77994
1.77986
1.7798
1.77977
1.77978
1.76598
1.76607
1.76617
1.76633
1.76654
1.76681
1.76714
1.76753
1.76797
1.76848
1.76903
1.76967
1.77041
1.77124
1.77219
1.77329
1.77462
1.77628
1.77853
1.78188
1.78902
1.80479
1.83493
1.95689
3.00283
6.59852
16.8812
29.184
34.8383
32.2945
23.9299
14.4363
7.77872
4.68381
3.31968
2.34814
1.8726
1.78749
1.7701
1.76483
1.76172
1.75984
1.75863
1.75783
1.75724
1.7568
1.75644
1.75614
1.75589
1.75566
1.75547
1.7553
1.75514
1.75501
1.7549
1.75481
1.75473
1.75467
1.75464
1.75466
1.74163
1.74172
1.74182
1.74198
1.7422
1.74248
1.74282
1.74321
1.74367
1.74418
1.74476
1.74542
1.74617
1.74703
1.74801
1.74914
1.75052
1.7522
1.7545
1.75782
1.76485
1.78004
1.80924
1.927
2.90431
6.21064
15.5801
27.1908
33.0409
31.5875
24.5011
15.5939
8.60498
5.04457
3.42417
2.40115
1.88608
1.77139
1.74718
1.74066
1.73735
1.73543
1.73417
1.73336
1.73276
1.73232
1.73197
1.73168
1.73143
1.73122
1.73103
1.73086
1.73071
1.73059
1.73048
1.73039
1.73031
1.73026
1.73023
1.73024
1.71791
1.71801
1.71811
1.71828
1.7185
1.71878
1.71913
1.71953
1.71999
1.72051
1.72111
1.72179
1.72256
1.72344
1.72444
1.72559
1.727
1.7287
1.73102
1.7343
1.74119
1.7558
1.78406
1.89724
2.80912
5.8559
14.4411
25.4025
31.3038
30.7646
24.8526
16.638
9.45534
5.44194
3.5435
2.45261
1.90207
1.75782
1.72551
1.71731
1.71373
1.71177
1.71046
1.70962
1.70901
1.70857
1.70821
1.70792
1.70768
1.70747
1.70728
1.70712
1.70698
1.70685
1.70675
1.70666
1.70659
1.70653
1.7065
1.70651
1.69481
1.69491
1.69502
1.69519
1.69541
1.6957
1.69604
1.69645
1.69692
1.69745
1.69806
1.69875
1.69953
1.70042
1.70144
1.70261
1.70404
1.70574
1.70807
1.71131
1.71802
1.73206
1.75938
1.86786
2.7179
5.5313
13.4357
23.7829
29.6141
29.8115
24.9942
17.5388
10.3235
5.87418
3.67773
2.50283
1.91941
1.74627
1.70498
1.69475
1.69084
1.68881
1.68745
1.68659
1.68596
1.6855
1.68514
1.68484
1.6846
1.68439
1.6842
1.68404
1.6839
1.68378
1.68367
1.68359
1.68351
1.68346
1.68343
1.68344
1.67231
1.67241
1.67252
1.67268
1.67291