/*--------------------------------*- C++ -*----------------------------------*\
  =========                 |
  \\      /  F ield         | OpenFOAM: The Open Source CFD Toolbox
   \\    /   O peration     | Website:  https://openfoam.org
    \\  /    A nd           | Version:  12
     \\/     M anipulation  |
\*---------------------------------------------------------------------------*/
FoamFile
{
    format      ascii;
    class       volScalarField;
    location    "220";
    object      p;
}
// * * * * * * * * * * * * * * * * * * * * * * * * * * * * * * * * * * * * * //

dimensions      [0 2 -2 0 0 0 0];

internalField   nonuniform List<scalar> 
16227
(
0.108756
0.108814
0.10893
0.109102
0.109325
0.109596
0.109908
0.110256
0.110632
0.111026
0.111429
0.11183
0.112218
0.112579
0.112901
0.113171
0.113373
0.113495
0.113523
0.113443
0.113244
0.112913
0.112441
0.11182
0.111045
0.110111
0.109018
0.107767
0.106363
0.104813
0.103127
0.101315
0.0993934
0.0973766
0.095282
0.0931275
0.0909316
0.0887127
0.0864891
0.0842782
0.0820965
0.0799595
0.0778812
0.075874
0.0739492
0.0721164
0.0703838
0.0687583
0.0672454
0.0658497
0.0645746
0.0634229
0.0623966
0.0614967
0.0607245
0.0600806
0.0595655
0.0591791
0.0589216
0.0587926
0.108713
0.108772
0.10889
0.109063
0.10929
0.109565
0.109882
0.110236
0.110618
0.111019
0.11143
0.11184
0.112237
0.112608
0.11294
0.11322
0.113433
0.113565
0.113602
0.113532
0.11334
0.113017
0.112551
0.111934
0.111162
0.110229
0.109134
0.107881
0.106471
0.104914
0.103218
0.101397
0.0994631
0.0974337
0.0953259
0.0931578
0.0909483
0.0887161
0.0864796
0.0842565
0.0820635
0.0799162
0.0778285
0.0758132
0.0738813
0.0720425
0.0703048
0.0686752
0.0671589
0.0657606
0.0644836
0.0633304
0.0623029
0.0614024
0.0606299
0.0599858
0.0594705
0.0590842
0.0588266
0.0586978
0.108617
0.108678
0.1088
0.108979
0.109213
0.109496
0.109825
0.110191
0.110587
0.111005
0.111434
0.111862
0.112279
0.112672
0.113026
0.113329
0.113564
0.113719
0.113778
0.113728
0.113555
0.113247
0.112794
0.112188
0.111421
0.110489
0.109392
0.108131
0.106711
0.105137
0.103422
0.101577
0.0996177
0.0975603
0.095423
0.0932248
0.090985
0.0887231
0.086458
0.0842079
0.0819898
0.0798196
0.0777114
0.075678
0.0737304
0.0718783
0.0701295
0.0684907
0.0669673
0.0655633
0.0642819
0.0631255
0.0620956
0.0611937
0.0604204
0.0597759
0.0592604
0.058874
0.0586165
0.0584876
0.108456
0.10852
0.108647
0.108836
0.109082
0.109381
0.109727
0.110115
0.110536
0.11098
0.111438
0.111899
0.112351
0.11278
0.113172
0.113512
0.113786
0.113979
0.114075
0.114059
0.113918
0.113637
0.113207
0.112617
0.11186
0.110931
0.10983
0.108557
0.107116
0.105516
0.103767
0.101882
0.0998789
0.0977739
0.0955865
0.0933368
0.0910456
0.0887333
0.0864197
0.0841238
0.0818633
0.0796545
0.0775117
0.0754479
0.0734742
0.0715997
0.0698325
0.0681786
0.0666432
0.06523
0.0639416
0.0627798
0.0617463
0.0608422
0.0600677
0.0594226
0.0589069
0.0585204
0.0582629
0.0581342
0.108229
0.108297
0.108433
0.108634
0.108897
0.109217
0.109589
0.110006
0.110461
0.110943
0.111443
0.111949
0.112448
0.112928
0.113372
0.113767
0.114096
0.114342
0.11449
0.114523
0.114426
0.114185
0.113786
0.11322
0.112478
0.111553
0.110446
0.109155
0.107687
0.106048
0.104251
0.102311
0.100245
0.0980724
0.0958139
0.0934915
0.0911275
0.0887439
0.0863621
0.084002
0.0816822
0.0794195
0.0772288
0.075123
0.0731131
0.0712081
0.0694157
0.0677415
0.06619
0.0647644
0.0634666
0.0622981
0.0612602
0.0603537
0.0595777
0.0589321
0.0584164
0.05803
0.0577727
0.0576441
0.107936
0.108009
0.108156
0.108373
0.108657
0.109004
0.109408
0.109863
0.110359
0.110889
0.111442
0.112005
0.112566
0.113111
0.113623
0.114088
0.114487
0.114803
0.115018
0.115115
0.115077
0.114886
0.11453
0.113995
0.113272
0.112355
0.111239
0.109927
0.108423
0.106734
0.104875
0.102863
0.100715
0.0984542
0.0961032
0.0936863
0.0912281
0.0887526
0.0862829
0.0838404
0.0814448
0.0791137
0.0768623
0.0747036
0.0726486
0.0707059
0.0688825
0.0671834
0.0656127
0.0641723
0.0628635
0.0616874
0.0606453
0.0597363
0.0589592
0.0583133
0.057798
0.0574121
0.0571553
0.057027
0.10757
0.10765
0.107809
0.108046
0.108355
0.108734
0.109177
0.109677
0.110225
0.110813
0.11143
0.112063
0.1127
0.113324
0.11392
0.114471
0.114957
0.115361
0.115661
0.115838
0.115874
0.115749
0.115447
0.114953
0.114256
0.113348
0.112224
0.110885
0.109336
0.107586
0.105649
0.103545
0.101296
0.0989241
0.0964571
0.0939221
0.0913463
0.0887565
0.086178
0.083634
0.0811455
0.0787309
0.0764061
0.0741839
0.0720751
0.0700878
0.0682283
0.0665007
0.064908
0.063451
0.0621304
0.0609471
0.059901
0.0589899
0.0582123
0.057567
0.0570527
0.0566679
0.0564119
0.0562841
0.107124
0.107211
0.107386
0.107644
0.107984
0.108401
0.108889
0.109442
0.110051
0.110708
0.111401
0.112118
0.112844
0.113564
0.114262
0.114917
0.115509
0.116019
0.116424
0.116701
0.116828
0.116785
0.116551
0.11611
0.115447
0.114552
0.11342
0.11205
0.110447
0.108621
0.106589
0.104373
0.101997
0.0994887
0.0968791
0.0941991
0.0914796
0.0887506
0.0860402
0.083374
0.0807745
0.0782608
0.0758494
0.0735531
0.0713822
0.069344
0.0674438
0.0656847
0.0640681
0.0625936
0.0612612
0.0600718
0.0590227
0.0581107
0.057334
0.0566904
0.0561781
0.0557953
0.0555409
0.0554139
0.10659
0.106686
0.106877
0.107161
0.107536
0.107996
0.108536
0.10915
0.10983
0.110566
0.111348
0.112162
0.112994
0.113828
0.114645
0.115424
0.116144
0.116783
0.117314
0.117712
0.117952
0.11801
0.117862
0.117487
0.116868
0.115991
0.11485
0.113444
0.111776
0.109859
0.107711
0.105358
0.102828
0.100154
0.0973712
0.0945155
0.0916227
0.0887267
0.0858593
0.0830483
0.0803183
0.0776895
0.0751783
0.0727977
0.0705569
0.0684625
0.0665182
0.0647256
0.0630841
0.0615926
0.0602505
0.0590567
0.0580062
0.0570956
0.0563216
0.0556815
0.0551729
0.0547933
0.0545412
0.0544155
0.10596
0.106066
0.106276
0.106589
0.107002
0.10751
0.10811
0.108793
0.109553
0.110381
0.111264
0.11219
0.113144
0.11411
0.115066
0.115992
0.116863
0.117654
0.118336
0.118881
0.119258
0.11944
0.119397
0.119105
0.118542
0.117691
0.116543
0.115095
0.113351
0.111324
0.109036
0.106517
0.103801
0.100927
0.097935
0.0948683
0.0917685
0.0886745
0.0856221
0.0826422
0.0797611
0.0770006
0.0743769
0.0719023
0.0695851
0.0674303
0.06544
0.0636133
0.0619478
0.0604411
0.0590928
0.0578973
0.0568485
0.055942
0.0551737
0.0545397
0.0540369
0.0536621
0.0534136
0.0532897
0.105225
0.105341
0.105573
0.105917
0.106373
0.106935
0.1076
0.108361
0.109211
0.11014
0.111138
0.112191
0.113285
0.114401
0.115519
0.116614
0.117662
0.118633
0.119495
0.120215
0.120758
0.121091
0.121179
0.120991
0.120499
0.119684
0.118531
0.117036
0.115202
0.113044
0.110589
0.107871
0.10493
0.101814
0.0985718
0.0952534
0.0919081
0.0885809
0.0853125
0.0821375
0.0790843
0.0761751
0.0734265
0.0708495
0.0684508
0.0662332
0.0641963
0.0623369
0.0606504
0.0591332
0.0577827
0.0565895
0.0555467
0.0546486
0.0538897
0.0532652
0.0527709
0.0524031
0.0521595
0.0520382
0.104375
0.104503
0.104757
0.105136
0.105637
0.106259
0.106995
0.107841
0.108789
0.109832
0.110957
0.112153
0.113404
0.114691
0.115993
0.117285
0.118538
0.119719
0.120795
0.121724
0.122468
0.122984
0.123232
0.123174
0.122775
0.122008
0.120855
0.119307
0.117369
0.115056
0.112399
0.109441
0.106231
0.102825
0.0992827
0.0956648
0.0920293
0.088429
0.0849104
0.0815119
0.0782641
0.0751899
0.0723049
0.0696186
0.0671351
0.0648544
0.0627724
0.0608839
0.0591823
0.0576614
0.0563143
0.0551293
0.0540983
0.053214
0.0524695
0.0518586
0.0513762
0.0510181
0.0507812
0.0506633
0.103398
0.103537
0.103816
0.104231
0.104783
0.105467
0.106281
0.107219
0.108275
0.109441
0.110707
0.112061
0.113488
0.114968
0.116479
0.117995
0.119485
0.120912
0.122239
0.123417
0.124402
0.125141
0.125588
0.125692
0.125412
0.12471
0.123563
0.121959
0.119899
0.117402
0.114504
0.111258
0.107723
0.103968
0.100067
0.096093
0.0921152
0.0881963
0.0843892
0.0807367
0.0772716
0.0740164
0.0709852
0.0681849
0.0656162
0.0632749
0.0611528
0.0592421
0.0575341
0.0560175
0.0546816
0.0535129
0.0525014
0.0516377
0.0509136
0.0503215
0.0498553
0.0495099
0.0492819
0.0491684
0.102281
0.102434
0.102737
0.103192
0.103796
0.104547
0.105443
0.106479
0.107651
0.108951
0.110371
0.111898
0.113519
0.115214
0.116961
0.118732
0.120494
0.122207
0.123827
0.125302
0.126576
0.127587
0.128279
0.128588
0.12846
0.127848
0.126718
0.125053
0.122853
0.120138
0.116951
0.113356
0.109429
0.105253
0.100922
0.0965237
0.0921427
0.0878527
0.0837146
0.0797759
0.0760703
0.0726197
0.0694352
0.0665194
0.0638682
0.0614722
0.0593195
0.0573984
0.055695
0.0541931
0.0528791
0.051737
0.0507544
0.0499199
0.0492235
0.0486563
0.0482112
0.0478823
0.0476656
0.0475579
0.101013
0.101178
0.101508
0.102003
0.102661
0.103482
0.104464
0.105604
0.106899
0.108342
0.109927
0.111643
0.113476
0.11541
0.11742
0.119479
0.121551
0.123594
0.125559
0.127385
0.129006
0.13035
0.131344
0.131911
0.131979
0.131489
0.130394
0.128667
0.126304
0.123329
0.119793
0.115777
0.111373
0.106689
0.10184
0.0969359
0.0920796
0.0873586
0.0828427
0.0785837
0.0746158
0.0709579
0.0676166
0.0645883
0.0618614
0.0594218
0.0572529
0.0553375
0.0536531
0.0521801
0.0509019
0.0497991
0.048857
0.0480618
0.0474018
0.0468668
0.0464485
0.0461404
0.0459379
0.0458374
0.099578
0.0997567
0.100114
0.100649
0.101363
0.102256
0.103327
0.104575
0.105997
0.107592
0.109352
0.11127
0.113335
0.115529
0.117831
0.120213
0.122638
0.125061
0.127427
0.129669
0.131707
0.133457
0.134827
0.135719
0.136043
0.135719
0.134682
0.132894
0.130346
0.12706
0.123103
0.118572
0.113586
0.108284
0.102809
0.0972994
0.0918821
0.0866612
0.0817164
0.0771028
0.0728528
0.0689804
0.0654844
0.0623526
0.0595642
0.0570986
0.0549343
0.0530433
0.0513965
0.0499711
0.0487459
0.0476979
0.04681
0.046066
0.0454525
0.0449579
0.044573
0.0442907
0.0441056
0.0440138
0.0979637
0.0981556
0.0985392
0.0991153
0.0998852
0.10085
0.102011
0.103369
0.104924
0.106675
0.10862
0.110752
0.113063
0.11554
0.118163
0.120904
0.123727
0.126585
0.129417
0.13215
0.13469
0.136937
0.138774
0.14008
0.140737
0.140638
0.139695
0.137854
0.135093
0.131437
0.126965
0.121803
0.116103
0.110042
0.103806
0.0975704
0.0914903
0.0856909
0.0802624
0.0752609
0.0707142
0.0666266
0.0629856
0.0597673
0.0569409
0.0544769
0.052343
0.0505002
0.048915
0.0475605
0.0464087
0.0454338
0.044616
0.0439369
0.0433813
0.0429365
0.0425925
0.0423413
0.0421771
0.0420959
0.096156
0.0963607
0.09677
0.0973859
0.0982104
0.0992463
0.100497
0.101965
0.103653
0.105564
0.107698
0.110054
0.112626
0.115405
0.118376
0.121513
0.124781
0.128133
0.131506
0.134817
0.13796
0.140814
0.143235
0.145069
0.146162
0.146371
0.145577
0.143696
0.140694
0.136594
0.131491
0.125546
0.11896
0.111964
0.104797
0.0976842
0.0908203
0.084354
0.0783853
0.0729675
0.0681177
0.0638248
0.0600586
0.0567819
0.0539524
0.051527
0.0494568
0.0476943
0.0462011
0.0449443
0.04389
0.0430093
0.0422798
0.041681
0.0411961
0.0408115
0.0405162
0.0403021
0.0401627
0.040094
0.0941413
0.094358
0.0947916
0.095445
0.0963214
0.0974254
0.098762
0.100337
0.102157
0.104228
0.106553
0.109138
0.111981
0.115079
0.118422
0.12199
0.125752
0.129662
0.133656
0.137646
0.141513
0.145112
0.148265
0.150775
0.152438
0.153067
0.152498
0.150609
0.147338
0.142703
0.13682
0.129899
0.122204
0.114042
0.105728
0.0975525
0.0897579
0.0825261
0.0759627
0.0701094
0.0649634
0.0604904
0.0566362
0.0533452
0.0505616
0.0482192
0.0462545
0.0446126
0.0432485
0.0421214
0.0411923
0.0404299
0.0398091
0.0393074
0.0389072
0.0385938
0.038356
0.0381851
0.0380747
0.0380205
0.091907
0.0921344
0.0925901
0.0932775
0.0942014
0.0953682
0.0967855
0.098462
0.100408
0.102633
0.105147
0.10796
0.111079
0.114507
0.118241
0.122272
0.126574
0.131108
0.13581
0.140593
0.145327
0.14984
0.153917
0.157297
0.159715
0.160922
0.160691
0.158843
0.155275
0.149992
0.143134
0.134977
0.125876
0.116246
0.106505
0.0970313
0.088139
0.0800383
0.0728355
0.0665445
0.0611297
0.0565241
0.0526429
0.0494044
0.0467282
0.0445253
0.0427193
0.0412468
0.0400552
0.0390944
0.0383221
0.0377047
0.0372146
0.0368284
0.0365276
0.0362972
0.0361258
0.0360046
0.0359273
0.0358896
0.0894415
0.0896781
0.0901525
0.0908691
0.0918342
0.0930561
0.0945451
0.0963133
0.0983745
0.100744
0.103438
0.106473
0.109865
0.113625
0.117763
0.122279
0.127163
0.132383
0.137885
0.143585
0.14935
0.154985
0.160229
0.164737
0.168132
0.170129
0.170403
0.168687
0.164811
0.158749
0.150668
0.140935
0.13004
0.118547
0.107022
0.0959595
0.0857412
0.0766676
0.0688
0.062099
0.0564748
0.0518157
0.0479975
0.0449016
0.0424122
0.0404209
0.0388397
0.0375954
0.0366247
0.0358713
0.0352906
0.0348469
0.0345113
0.0342596
0.0340734
0.0339379
0.0338419
0.033777
0.0337371
0.033718
0.086735
0.0869785
0.0874675
0.088207
0.0892048
0.0904715
0.0920199
0.0938658
0.0960273
0.0985254
0.101383
0.104625
0.108276
0.112361
0.116903
0.121916
0.127412
0.133373
0.139764
0.146513
0.153496
0.160505
0.167235
0.173229
0.177963
0.181053
0.182064
0.180617
0.176425
0.1694
0.15974
0.147942
0.134694
0.120784
0.106985
0.0939475
0.0822226
0.0721035
0.0635957
0.0565665
0.0508459
0.0462559
0.0426239
0.039782
0.0375802
0.0358908
0.0346129
0.033663
0.0329675
0.0324669
0.032115
0.0318752
0.0317182
0.0316204
0.0315641
0.0315354
0.0315237
0.0315213
0.0315227
0.0315242
0.0837794
0.0840274
0.0845256
0.0852802
0.0863003
0.0875985
0.0891905
0.0910955
0.0933363
0.0959397
0.098936
0.102359
0.106245
0.110634
0.115564
0.12107
0.127189
0.133929
0.141285
0.149211
0.157611
0.166295
0.174906
0.182898
0.189264
0.19383
0.195925
0.194997
0.190557
0.182392
0.170729
0.156254
0.13995
0.122931
0.106273
0.0908163
0.0771414
0.0659617
0.0568983
0.0497019
0.044069
0.0397288
0.0364457
0.0339996
0.0322106
0.0309317
0.030048
0.0294651
0.0291039
0.0289041
0.0288196
0.0288142
0.0288598
0.0289347
0.0290229
0.0291119
0.0291927
0.0292586
0.0293049
0.0293288
0.0805695
0.0808187
0.0813201
0.0820803
0.0831101
0.0844238
0.0860397
0.0879805
0.0902736
0.0929514
0.0960521
0.0996192
0.103702
0.108354
0.113636
0.119607
0.126331
0.133862
0.142231
0.151442
0.161451
0.17215
0.183177
0.193797
0.197306
0.204102
0.208125
0.208885
0.205536
0.197551
0.184976
0.168575
0.149577
0.129467
0.109667
0.0913332
0.0698755
0.0576636
0.0483201
0.0412371
0.0359624
0.0321205
0.0293982
0.0275272
0.0263017
0.0255582
0.0251684
0.0250306
0.0250657
0.0252156
0.0254364
0.0256948
0.0259657
0.0262307
0.0264764
0.0266928
0.0268731
0.0270121
0.0271066
0.0271542
0.0771028
0.0773499
0.0778472
0.0786025
0.0796271
0.0809375
0.0825539
0.0845024
0.0868145
0.0895282
0.0926886
0.0963494
0.100572
0.105429
0.111
0.117375
0.124651
0.132936
0.14232
0.152877
0.164643
0.177668
0.191899
0.198821
0.211624
0.221031
0.227567
0.230084
0.227249
0.218017
0.202281
0.181157
0.156601
0.130911
0.106196
0.0841918
0.0665276
0.0464646
0.0373968
0.0308989
0.0263661
0.0233435
0.0214485
0.0203696
0.0198812
0.0198095
0.0200176
0.020405
0.0208983
0.0214449
0.0220065
0.0225551
0.0230711
0.0235408
0.0239547
0.0243063
0.0245914
0.0248073
0.0249521
0.0250247
0.0733804
0.0736214
0.074107
0.0748452
0.0758484
0.0771341
0.0787245
0.080648
0.0829397
0.0856425
0.0888079
0.0924986
0.0967886
0.101766
0.107535
0.114214
0.121943
0.130881
0.141204
0.153079
0.166649
0.182098
0.200174
0.209729
0.225432
0.235841
0.24552
0.251344
0.250947
0.2422
0.224347
0.198726
0.168193
0.136176
0.105577
0.0732751
0.0536362
0.0318588
0.0238003
0.0184733
0.0151667
0.0133641
0.0126132
0.0125741
0.0130128
0.0137529
0.014663
0.0156536
0.0166625
0.0176476
0.0185799
0.0194402
0.0202166
0.0209016
0.0214911
0.0219828
0.0223762
0.0226709
0.0228673
0.0229654
0.0694073
0.069638
0.0701033
0.0708115
0.0717754
0.0730132
0.0745483
0.0764105
0.0786373
0.0812753
0.0843809
0.0880241
0.0922897
0.0972802
0.103121
0.109963
0.117984
0.127402
0.138475
0.151494
0.166732
0.184403
0.206052
0.219187
0.240245
0.25648
0.271197
0.282266
0.285507
0.276631
0.253765
0.218933
0.177294
0.134786
0.0958381
0.0568825
0.036672
0.0134941
0.00739074
0.00385722
0.00235434
0.00223783
0.00298276
0.00424712
0.00580421
0.00749173
0.00920056
0.010863
0.0124351
0.0138909
0.0152157
0.016402
0.0174478
0.0183534
0.0191215
0.0197549
0.0202571
0.0206309
0.0208787
0.0210023
0.0651924
0.0654086
0.0658448
0.0665096
0.0674155
0.0685809
0.0700292
0.0717909
0.0739044
0.0764179
0.0793908
0.0828977
0.0870306
0.0919034
0.0976581
0.104471
0.112561
0.122193
0.133705
0.14752
0.164087
0.183695
0.208716
0.226109
0.252924
0.27614
0.299406
0.31989
0.331013
0.324156
0.294324
0.245042
0.186492
0.129333
0.0801278
0.0340847
0.0132036
-0.00921622
-0.0121749
-0.0129933
-0.0119599
-0.00986712
-0.00725753
-0.00443235
-0.00158262
0.00117017
0.0037566
0.00614162
0.00830849
0.0102538
0.0119812
0.0134979
0.0148139
0.0159391
0.0168836
0.0176561
0.0182646
0.0187153
0.0190132
0.0191613
0.0607491
0.0609465
0.0613449
0.0619526
0.0627817
0.0638496
0.0651791
0.0667999
0.0687493
0.0710751
0.0738367
0.0771096
0.0809884
0.0855923
0.0910733
0.0976245
0.105492
0.114988
0.12651
0.140593
0.1579
0.178899
0.206694
0.228605
0.261596
0.293695
0.328581
0.365257
0.392774
0.393195
0.352815
0.278312
0.192116
0.114075
0.0532563
0.000770475
-0.0179905
-0.0370305
-0.0350982
-0.0319237
-0.0274916
-0.0226413
-0.0178159
-0.0132076
-0.00892659
-0.00502464
-0.00151302
0.00161853
0.00438944
0.00682462
0.00894965
0.0107893
0.0123668
0.0137028
0.0148155
0.0157199
0.0164287
0.0169518
0.0172966
0.0174677
0.0560952
0.0562696
0.0566219
0.0571594
0.0578933
0.0588395
0.0600187
0.0614584
0.0631932
0.0652674
0.0677373
0.0706744
0.0741701
0.0783415
0.0833397
0.089362
0.0966668
0.105591
0.116575
0.130224
0.147361
0.168697
0.197868
0.223911
0.26188
0.30358
0.353055
0.41599
0.47806
0.500302
0.44213
0.317915
0.184168
0.0787013
0.00764426
-0.0467505
-0.0584807
-0.0699866
-0.060932
-0.052346
-0.0436801
-0.0355916
-0.0282764
-0.0217337
-0.015947
-0.010867
-0.00642764
-0.00256136
0.000794545
0.00369753
0.00619775
0.00833893
0.0101586
0.0116883
0.0129546
0.0139788
0.0147783
0.0153667
0.0157536
0.0159454
0.0512529
0.0514005
0.0516988
0.0521541
0.0527759
0.0535778
0.0545775
0.0557986
0.0572708
0.0590326
0.0611329
0.0636345
0.0666189
0.0701914
0.0744903
0.0796995
0.0860658
0.0939208
0.103712
0.116049
0.131803
0.151885
0.180053
0.208764
0.24829
0.297297
0.359112
0.457914
0.592022
0.681567
0.58798
0.350536
0.135771
0.00324852
-0.0669663
-0.111624
-0.108589
-0.1067
-0.0882836
-0.0730996
-0.0596158
-0.0480058
-0.0380814
-0.0295784
-0.0223114
-0.0161011
-0.0107894
-0.00624408
-0.00235553
0.000967803
0.00380159
0.00620827
0.00823947
0.00993717
0.0113358
0.0124627
0.0133398
0.0139837
0.0144065
0.0146158
0.0462482
0.0463658
0.0466035
0.0469661
0.0474611
0.0480991
0.0488938
0.0498634
0.0510309
0.0524261
0.054087
0.0560628
0.0584176
0.0612353
0.0646278
0.0687453
0.0737953
0.0800627
0.087949
0.097984
0.11093
0.127819
0.151861
0.18044
0.215407
0.264007
0.320448
0.442357
0.704114
1.02317
0.835654
0.297588
-0.0221258
-0.142734
-0.178889
-0.19324
-0.16558
-0.143869
-0.114688
-0.0924168
-0.0740231
-0.0589538
-0.0465551
-0.0362501
-0.0276586
-0.0204585
-0.0143969
-0.0092771
-0.00494427
-0.00127421
0.0018319
0.00445346
0.00665452
0.00848626
0.00998989
0.0111979
0.012136
0.0128234
0.0132741
0.0134971
0.041111
0.0411958
0.0413675
0.0416292
0.0419858
0.0424443
0.0430136
0.0437056
0.0445347
0.0455201
0.0466855
0.0480619
0.0496895
0.0516217
0.0539306
0.0567134
0.0601082
0.0643089
0.0696111
0.0763741
0.0850724
0.0967889
0.113454
0.138694
0.162465
0.197461
0.211936
0.259989
0.502868
1.5677
1.16257
-0.26101
-0.425009
-0.380366
-0.32324
-0.281491
-0.221776
-0.176133
-0.1367
-0.108021
-0.085365
-0.0673857
-0.0529768
-0.0412478
-0.0316347
-0.023685
-0.0170648
-0.0115237
-0.00686903
-0.00295054
0.000348874
0.0031217
0.00544132
0.00736593
0.00894185
0.0102054
0.011185
0.0119019
0.0123715
0.0126037
0.0358736
0.0359239
0.0360258
0.0361809
0.036391
0.0366594
0.0369896
0.0373862
0.0378545
0.0384009
0.0390331
0.0397603
0.0405943
0.0415507
0.0426505
0.0439228
0.0454117
0.0471782
0.0493597
0.0520716
0.0553365
0.0602426
0.0666982
0.0858031
0.0952204
0.110034
0.0668146
-0.0684317
-0.6675
-2.51963
-1.0621
-0.651892
-0.462189
-0.354296
-0.264968
-0.196928
-0.150459
-0.117514
-0.0921174
-0.0723144
-0.0566985
-0.044136
-0.0339411
-0.0255721
-0.0186454
-0.012877
-0.00805107
-0.00400217
-0.000602609
0.00224752
0.00462693
0.00659779
0.00820925
0.00949974
0.0104993
0.0112302
0.0117088
0.0119453
0.0305708
0.0305856
0.0306158
0.0306612
0.0307209
0.0307941
0.0308786
0.030972
0.0310695
0.0311647
0.0312481
0.031306
0.0313193
0.0312618
0.0310985
0.0307808
0.0302454
0.0293937
0.0281646
0.0263969
0.0235351
0.0206599
0.0149755
0.0258804
0.0209559
0.0200361
-0.0281518
-0.147704
-0.282918
0.078985
-2.33689
-1.3496
-0.79647
-0.536796
-0.386423
-0.282785
-0.200781
-0.1529
-0.119047
-0.0931675
-0.0730512
-0.0572868
-0.0446335
-0.0343905
-0.0259928
-0.0190505
-0.0132743
-0.00844491
-0.00439545
-0.000997278
0.0018503
0.00422643
0.0061937
0.0078016
0.00908876
0.0100854
0.010814
0.0112909
0.0115265
0.0252382
0.0252176
0.025176
0.0251117
0.0250212
0.0248995
0.0247396
0.0245319
0.0242623
0.023912
0.023455
0.0228557
0.0220651
0.0210165
0.0196191
0.0177467
0.0152314
0.0118104
0.00720578
0.000993893
-0.00803258
-0.018755
-0.0372581
-0.0364245
-0.0571602
-0.0755926
-0.110317
-0.113836
-0.584138
-2.48712
-2.29267
-2.23427
-1.20669
-0.755188
-0.520117
-0.366607
-0.269396
-0.18568
-0.142984
-0.111998
-0.088182
-0.0694164
-0.0546464
-0.0426878
-0.032954
-0.024931
-0.0182708
-0.0127096
-0.00804678
-0.00412803
-0.000833583
0.00193096
0.00424037
0.00615396
0.00771892
0.00897223
0.00994292
0.0106527
0.0111173
0.0113467
0.0199121
0.0198567
0.0197451
0.0195738
0.0193372
0.0190267
0.0186309
0.018134
0.0175139
0.0167412
0.0157755
0.0145629
0.0130289
0.0110719
0.00855385
0.00528154
0.000999246
-0.00469638
-0.0122902
-0.0223938
-0.0368763
-0.0543908
-0.0846716
-0.095375
-0.134606
-0.18049
-0.243657
-0.413858
-0.854919
-1.65541
-1.81317
-1.33358
-0.868058
-0.593723
-0.428733
-0.301571
-0.227523
-0.154279
-0.122366
-0.0973507
-0.0778073
-0.0618388
-0.0490686
-0.0384989
-0.0297723
-0.0224865
-0.0163774
-0.0112349
-0.00689473
-0.00322833
-0.000133235
0.00247256
0.00465514
0.00646732
0.0079517
0.00914197
0.0100646
0.0107397
0.0111818
0.0114
0.0146279
0.0145393
0.0143608
0.0140878
0.0137126
0.0132242
0.0126073
0.0118418
0.0108991
0.00974182
0.00831968
0.00656464
0.00438508
0.00165484
-0.00179734
-0.00621255
-0.0119042
-0.0193647
-0.029242
-0.0422064
-0.0607461
-0.0829079
-0.122019
-0.143487
-0.198469
-0.271399
-0.362648
-0.557589
-0.644603
-0.988716
-0.970028
-0.772093
-0.550085
-0.403948
-0.302965
-0.209476
-0.166802
-0.112823
-0.094799
-0.0774304
-0.063535
-0.0512805
-0.0411855
-0.0324892
-0.0251335
-0.0188593
-0.0135117
-0.00895161
-0.00506336
-0.00175203
0.00106133
0.00344224
0.00544456
0.00711247
0.00848215
0.00958268
0.010437
0.0110628
0.0114728
0.0116752
0.00941963
0.00929996
0.00905911
0.00869155
0.00818825
0.00753633
0.00671857
0.00571104
0.00448202
0.0029895
0.00117732
-0.00102927
-0.00373066
-0.00706395
-0.0112141
-0.0164455
-0.0230899
-0.0316524
-0.0428819
-0.0573505
-0.0781075
-0.1021
-0.145737
-0.174429
-0.237001
-0.323259
-0.415736
-0.562529
-0.631712
-0.686252
-0.614877
-0.430387
-0.307431
-0.225094
-0.17052
-0.11046
-0.0997513
-0.0688026
-0.06486
-0.0551994
-0.0472898
-0.0389984
-0.0318315
-0.025222
-0.0194239
-0.0143184
-0.00986466
-0.00599799
-0.0026548
0.000223909
0.00269104
0.00479356
0.00657153
0.00805902
0.0092849
0.0102725
0.0110409
0.0116045
0.0119741
0.0121565
0.00431934
0.00417126
0.00387344
0.00341996
0.00280088
0.00200268
0.00100679
-0.000211774
-0.00168609
-0.00345881
-0.00558689
-0.0081451
-0.0112329
-0.0149859
-0.0195781
-0.0252647
-0.032361
-0.0413113
-0.0528932
-0.0674117
-0.0884282
-0.111375
-0.154846
-0.185897
-0.245896
-0.331091
-0.403751
-0.484606
-0.632443
-0.648178
-0.506212
-0.285244
-0.132064
-0.0647454
-0.0489346
-0.0208168
-0.037549
-0.0290933
-0.0367706
-0.0335027
-0.0309544
-0.0262518
-0.0218625
-0.0172899
-0.0130591
-0.00915937
-0.00564989
-0.00253171
0.000212717
0.00260904
0.00468544
0.00647044
0.00799057
0.0092695
0.0103282
0.0111841
0.0118518
0.0123426
0.0126648
0.0128238
-0.000643523
-0.000817113
-0.00116599
-0.00169602
-0.00241751
-0.00334388
-0.00449364
-0.00589137
-0.00756858
-0.00956601
-0.0119368
-0.0147489
-0.0180918
-0.0220855
-0.0268704
-0.0326665
-0.039737
-0.0484117
-0.0594394
-0.0726714
-0.0921366
-0.111554
-0.150522
-0.179326
-0.229344
-0.302186
-0.344591
-0.387486
-0.465136
-0.564611
-0.441139
-0.202475
0.00247497
0.0689783
0.0469342
0.0440533
0.00989259
0.00157101
-0.0135951
-0.0145036
-0.0160043
-0.0140703
-0.0120012
-0.00920803
-0.00641339
-0.00365835
-0.00107505
0.00128908
0.00341717
0.00530772
0.00696823
0.00841122
0.00965088
0.0107012
0.0115756
0.0122858
0.0128416
0.0132512
0.0135205
0.0136533
-0.00544232
-0.00563851
-0.0060323
-0.00662958
-0.00744004
-0.00847663
-0.00975666
-0.0113028
-0.0131434
-0.0153148
-0.0178632
-0.0208435
-0.024325
-0.0284024
-0.0331667
-0.0387861
-0.0454526
-0.0533285
-0.06309
-0.0739888
-0.0904022
-0.104438
-0.135354
-0.158915
-0.19481
-0.249243
-0.261975
-0.287144
-0.29035
-0.382459
-0.344568
-0.194702
0.035949
0.142395
0.0969036
0.0742558
0.0366505
0.0208741
0.00319807
0.000651316
-0.00327804
-0.00310232
-0.00274416
-0.00135312
0.000226223
0.00195992
0.00368133
0.00532181
0.00684393
0.00822693
0.00946305
0.0105525
0.0114991
0.0123087
0.0129878
0.0135426
0.0139788
0.0143014
0.014514
0.0146187
-0.0100534
-0.0102693
-0.0107021
-0.0113575
-0.0122444
-0.0133744
-0.0147633
-0.0164308
-0.0184011
-0.0207047
-0.0233773
-0.0264557
-0.0299861
-0.0340305
-0.0386315
-0.0438862
-0.0499026
-0.0566461
-0.0646918
-0.0726196
-0.0849502
-0.0926009
-0.1129
-0.129146
-0.148839
-0.185139
-0.188672
-0.212895
-0.199341
-0.276524
-0.325164
-0.22258
-0.00776059
0.0872258
0.0838326
0.0690147
0.043315
0.0298072
0.0139328
0.0119348
0.00710122
0.00645625
0.00569174
0.00606506
0.00667387
0.00753561
0.00848268
0.00944921
0.010393
0.0112816
0.0120975
0.0128323
0.013482
0.0140456
0.0145238
0.0149181
0.0152304
0.0154625
0.015616
0.0156914
-0.014456
-0.0146889
-0.0151553
-0.0158605
-0.0168124
-0.0180212
-0.019501
-0.021268
-0.0233417
-0.0257453
-0.0285017
-0.0316299
-0.0351544
-0.0391072
-0.0434807
-0.0482936
-0.0535669
-0.0590661
-0.065258
-0.0700653
-0.0778889
-0.0790251
-0.0874307
-0.0947877
-0.0972111
-0.114669
-0.122515
-0.145184
-0.167807
-0.275279
-0.430005
-0.27624
-0.118265
-0.026118
0.0277303
0.0426642
0.0366649
0.0322201
0.0205251
0.0202726
0.0155888
0.0147779
0.0133393
0.0129995
0.0128442
0.01297
0.0132326
0.0135815
0.0139818
0.0143974
0.0148056
0.0151922
0.0155478
0.015866
0.0161426
0.0163752
0.0165622
0.0167026
0.016796
0.0168417
-0.0186322
-0.0188796
-0.0193748
-0.0201224
-0.0211294
-0.0224049
-0.0239614
-0.0258114
-0.0279689
-0.0304502
-0.0332658
-0.0364233
-0.0399275
-0.043783
-0.0479393
-0.0523433
-0.0569403
-0.0613218
-0.0658633
-0.0679357
-0.0715559
-0.0670134
-0.0639861
-0.0610884
-0.0454548
-0.0392376
-0.0355337
-0.0609738
-0.120587
-0.300549
-0.536341
-0.339112
-0.226177
-0.109483
-0.0253132
0.0158966
0.0268023
0.0328466
0.0255653
0.0271113
0.0229624
0.0222586
0.0203924
0.0195197
0.0187319
0.0182163
0.017867
0.0176514
0.017544
0.0175105
0.0175278
0.0175781
0.0176474
0.0177255
0.0178041
0.0178772
0.0179402
0.0179897
0.0180236
0.0180397
-0.0225663
-0.0228261
-0.0233458
-0.0241295
-0.0251836
-0.0265162
-0.0281383
-0.0300584
-0.0322865
-0.0348325
-0.0377011
-0.0408924
-0.0443932
-0.0481902
-0.0522028
-0.0563276
-0.0604594
-0.0640694
-0.0674838
-0.0677179
-0.068261
-0.0599524
-0.0482339
-0.0346056
-0.000840398
0.0319583
0.0403588
0.020306
-0.040976
-0.256425
-0.449073
-0.311494
-0.250456
-0.133637
-0.0495944
0.00195882
0.0216896
0.0353401
0.0312318
0.0338049
0.0300232
0.0293372
0.0270883
0.0257365
0.0243706
0.0232619
0.0223466
0.0216062
0.0210235
0.0205653
0.0202108
0.0199398
0.0197349
0.0195819
0.0194694
0.0193881
0.0193309
0.0192922
0.0192681
0.0192555
-0.0262452
-0.0265154
-0.0270558
-0.0278702
-0.0289646
-0.0303465
-0.0320245
-0.0340048
-0.036296
-0.038905
-0.0418336
-0.0450779
-0.0486137
-0.0524212
-0.0564077
-0.0604501
-0.0644288
-0.0677707
-0.0708233
-0.0705009
-0.0698366
-0.0606829
-0.0457387
-0.0234885
0.0235971
0.0771725
0.0780747
0.0646838
0.00212164
-0.153379
-0.220597
-0.235472
-0.199658
-0.111477
-0.0444461
0.00377869
0.0245854
0.0414096
0.0387079
0.0412125
0.037339
0.0363595
0.0336119
0.0317271
0.0297773
0.0280933
0.026639
0.0254006
0.0243697
0.0235114
0.0228059
0.0222315
0.0217672
0.0213955
0.0211018
0.0208739
0.0207023
0.0205795
0.0205002
0.0204602
-0.0296574
-0.0299363
-0.030494
-0.0313344
-0.0324631
-0.0338866
-0.0356123
-0.0376464
-0.039998
-0.0426733
-0.0456738
-0.0489964
-0.0526144
-0.0565144
-0.0606094
-0.0647902
-0.0689629
-0.0725898
-0.0761236
-0.0766486
-0.0769958
-0.0703728
-0.0592409
-0.0347231
0.0112079
0.0716046
0.068633
0.0481663
-0.0103979
-0.0832777
-0.132429
-0.166698
-0.12726
-0.0663717
-0.0205107
0.0176458
0.0348677
0.0511416
0.0482279
0.0496349
0.0451449
0.0434898
0.0400578
0.0375269
0.034948
0.0326806
0.0307048
0.0289899
0.0275345
0.0263009
0.025268
0.0244106
0.0237045
0.0231291
0.0226666
0.0223021
0.0220239
0.0218226
0.0216917
0.0216262
-0.0327936
-0.0330795
-0.0336514
-0.0345131
-0.0356699
-0.0371276
-0.0388943
-0.0409778
-0.0433879
-0.0461322
-0.049215
-0.0526395
-0.0563832
-0.0604508
-0.0647751
-0.0692915
-0.0739604
-0.0783403
-0.08307
-0.0856065
-0.0888684
-0.087488
-0.0858749
-0.0671522
-0.0398077
-7.41803e-05
0.000643027
-0.0439839
-0.0981633
-0.119872
-0.121215
-0.112224
-0.0696364
-0.021194
0.0104879
0.0379252
0.0502291
0.0638204
0.0594552
0.0589704
0.0533939
0.0507038
0.0463984
0.0430989
0.0398405
0.0369765
0.0344907
0.0323228
0.0304691
0.0288869
0.0275532
0.0264365
0.0255094
0.024748
0.0241316
0.0236427
0.0232673
0.0229945
0.0228166
0.0227278
-0.0356459
-0.0359371
-0.03652
-0.037398
-0.0385764
-0.0400616
-0.0418629
-0.04399
-0.0464542
-0.0492664
-0.0524356
-0.0559759
-0.0598739
-0.06416
-0.0687941
-0.0737746
-0.079129
-0.0845428
-0.090889
-0.0960569
-0.103239
-0.108155
-0.118078
-0.110065
-0.107698
-0.106867
-0.120489
-0.163687
-0.185869
-0.175791
-0.113992
-0.0724999
-0.0300103
0.0101943
0.0383558
0.0610031
0.0687173
0.0786
0.0718376
0.068895
0.0618456
0.0578269
0.0524988
0.0483373
0.0443724
0.040913
0.0379345
0.0353393
0.0331218