/*--------------------------------*- C++ -*----------------------------------*\
  =========                 |
  \\      /  F ield         | OpenFOAM: The Open Source CFD Toolbox
   \\    /   O peration     | Website:  https://openfoam.org
    \\  /    A nd           | Version:  12
     \\/     M anipulation  |
\*---------------------------------------------------------------------------*/
FoamFile
{
    format      ascii;
    class       surfaceScalarField;
    location    "220";
    object      phi;
}
// * * * * * * * * * * * * * * * * * * * * * * * * * * * * * * * * * * * * * //

dimensions      [0 3 -1 0 0 0 0];

internalField   nonuniform List<scalar> 
32440
(
-2.15443e-07
0.0399882
1.5729e-06
0.0399882
-6.31388e-07
0.0399902
1.17552e-06
0.0399882
-1.00247e-06
0.0399902
8.38182e-07
0.0399982
7.01312e-07
0.0400101
5.90517e-07
0.0400101
2.50971e-06
0.0400101
4.46239e-06
0.04001
6.45187e-06
0.04001
2.48113e-06
0.040004
2.55254e-06
0.0399999
2.66884e-06
0.0399999
2.83183e-06
0.0399998
3.04265e-06
0.0399998
3.3017e-06
0.0399997
3.60846e-06
0.0399997
3.96152e-06
0.0399996
4.35839e-06
0.0399996
4.79547e-06
0.0399996
5.26809e-06
0.0399995
5.77044e-06
0.0399995
6.29571e-06
0.0399995
6.83619e-06
0.0399995
7.38344e-06
0.0399995
7.92858e-06
0.0399995
8.46186e-06
0.0399995
7.3752e-06
0.0400011
2.19858e-06
0.0400052
1.10676e-06
0.0400011
1.30864e-06
0.0399998
1.65955e-06
0.0399996
1.95454e-06
0.0399997
3.19002e-06
0.0399988
3.3639e-06
0.0399998
3.47525e-06
0.0399999
3.52467e-06
0.04
3.51375e-06
0.04
3.44514e-06
0.0400001
3.32229e-06
0.0400001
3.14923e-06
0.0400002
2.93041e-06
0.0400002
2.67055e-06
0.0400003
2.3743e-06
0.0400003
2.04639e-06
0.0400003
1.69132e-06
0.0400004
1.31386e-06
0.0400004
9.16649e-07
0.0400004
5.03826e-07
0.0400004
7.83567e-08
0.0400004
-2.35705e-06
0.0400024
-8.79916e-06
0.0400064
-3.2478e-06
0.0400064
2.98544e-07
0.0400085
-1.58387e-07
0.0400105
1.38293e-06
0.0399985
9.22971e-07
0.0399885
4.62253e-07
0.0399905
0.0399885
-7.31569e-07
0.0399889
-1.44942e-06
0.0399889
-2.13902e-06
0.0399909
-2.78625e-06
0.0399888
-1.37693e-06
0.0399888
1.02785e-07
0.0399967
1.66687e-06
0.0400086
1.32921e-06
0.0400104
3.10355e-06
0.0400083
7.00259e-06
0.0400061
1.10397e-05
0.040006
3.22594e-06
0.0400118
-4.31035e-07
0.0400036
7.85413e-08
0.0399994
7.6057e-07
0.0399992
1.61902e-06
0.0399989
2.65463e-06
0.0399987
3.86482e-06
0.0399985
5.24331e-06
0.0399983
6.78002e-06
0.0399981
8.4599e-06
0.0399979
1.0265e-05
0.0399977
1.21723e-05
0.0399976
1.41554e-05
0.0399975
1.61845e-05
0.0399974
1.84275e-05
0.0399972
2.04504e-05
0.0399974
2.20191e-05
0.0399979
2.24984e-05
0.0400006
1.85501e-05
0.0400091
1.86622e-05
0.040001
2.00899e-05
0.0399984
2.1317e-05
0.0399984
2.23266e-05
0.0399987
2.19066e-05
0.0399992
2.24528e-05
0.0399993
2.27601e-05
0.0399996
2.28342e-05
0.0399999
2.2683e-05
0.0400002
2.23185e-05
0.0400004
2.17552e-05
0.0400007
2.10099e-05
0.0400009
2.01007e-05
0.0400011
1.90478e-05
0.0400013
1.98667e-05
0.0399995
1.8577e-05
0.0400016
1.71961e-05
0.0400017
1.5739e-05
0.0400018
1.42217e-05
0.0400019
1.26573e-05
0.040002
9.0541e-06
0.040004
3.42469e-06
0.0400081
-2.23961e-07
0.0400101
1.09886e-07
0.0400061
4.33419e-07
0.0400081
7.51065e-07
0.0400101
5.06563e-06
0.0399941
1.37831e-06
0.0399921
1.69009e-06
0.0399901
0.0399902
-1.24232e-06
0.0399902
-2.45929e-06
0.0399901
-1.62531e-06
0.0399901
-2.71523e-06
0.0399899
-5.70359e-06
0.0399918
-5.64617e-07
0.0399915
-1.2749e-06
0.0400093
1.92437e-07
0.040009
1.86009e-06
0.0400066
3.75315e-06
0.0400043
5.89206e-06
0.0400038
-1.69839e-06
0.0400194
-3.0083e-06
0.0400049
-2.02021e-06
0.0399984
-7.21769e-07
0.0399979
8.9242e-07
0.0399973
2.82371e-06
0.0399968
5.06705e-06
0.0399962
1.16102e-05
0.0399917
1.04354e-05
0.0399992
1.35139e-05
0.0399948
1.68126e-05
0.0399944
2.02894e-05
0.0399941
2.38956e-05
0.0399939
2.75767e-05
0.0399937
3.12735e-05
0.0399935
3.4924e-05
0.0399938
3.8463e-05
0.0399944
4.02324e-05
0.0399988
3.76852e-05
0.0400117
3.90275e-05
0.0399996
4.13471e-05
0.0399961
4.34942e-05
0.0399963
4.5239e-05
0.039997
4.75611e-05
0.0399969
4.84488e-05
0.0399984
4.89054e-05
0.0399991
4.89409e-05
0.0399998
4.85653e-05
0.0400005
4.78049e-05
0.0400012
4.6688e-05
0.0400018
4.52464e-05
0.0400024
4.3517e-05
0.0400029
4.15272e-05
0.0400033
3.73183e-05
0.0400037
3.49219e-05
0.040004
3.23718e-05
0.0400043
3.16925e-05
0.0400025
2.89117e-05
0.0400047
2.40527e-05
0.0400068
1.91357e-05
0.0400089
6.184e-06
0.040021
9.1928e-06
0.0400071
8.1805e-06
0.0400071
7.15693e-06
0.0400092
8.1273e-06
0.0400092
9.09631e-06
0.0399932
6.06449e-06
0.0399952
3.03298e-06
0.0399932
0.0399932
-1.7956e-06
0.039992
-3.55367e-06
0.0399919
-5.23783e-06
0.0399917
-6.8113e-06
0.0399915
-6.23701e-06
0.0399912
-7.47832e-06
0.0399928
-2.49828e-06
0.0400043
-1.26207e-06
0.0400077
2.68339e-07
0.0400051
1.25033e-07
0.0400044
3.43728e-07
0.0400036
-3.04475e-06
0.0400228
-6.02199e-06
0.0400079
-6.56153e-06
0.0399989
-4.64808e-06
0.0399959
-2.70311e-07
0.0399929
4.57287e-06
0.0399919
1.78735e-05
0.0399829
2.76176e-05
0.039982
1.97776e-05
0.0400071
1.8312e-05
0.0399963
2.31697e-05
0.0399896
2.829e-05
0.039989
3.35988e-05
0.0399886
3.90183e-05
0.0399883
4.44591e-05
0.0399881
4.98287e-05
0.0399884
5.48351e-05
0.0399894
5.83788e-05
0.0399953
5.73e-05
0.0400128
5.99545e-05
0.039997
6.3432e-05
0.0399926
6.67498e-05
0.039993
6.9268e-05
0.0399944
6.99577e-05
0.0399962
7.12054e-05
0.0399971
7.18121e-05
0.0399985
7.17933e-05
0.0399999
7.31733e-05
0.0399992
7.19888e-05
0.0400024
7.02832e-05
0.0400035
6.81095e-05
0.0400045
6.55076e-05
0.0400055
6.25409e-05
0.0400063
5.92616e-05
0.040007
5.57121e-05
0.0400076
5.19407e-05
0.0400081
4.59973e-05
0.0400085
4.39122e-05
0.0400068
3.97209e-05
0.040011
2.54558e-05
0.0400232
2.11404e-05
0.0400253
1.67766e-05
0.0400114
1.43899e-05
0.0400095
1.19926e-05
0.0400116
1.55933e-05
0.0400056
1.11924e-05
0.0399976
8.79388e-06
0.0399976
4.39719e-06
0.0399976
0.0399976
-2.4074e-06
0.0399944
-4.7648e-06
0.0399943
-7.02523e-06
0.039994
-9.13977e-06
0.0399936
-1.10612e-05
0.0399931
-1.07394e-05
0.0399925
-4.1264e-06
0.0399977
-5.17419e-06
0.0400088
-5.8358e-06
0.0400058
-4.06457e-06
0.0400026
-1.81608e-06
0.0400014
-1.04656e-06
0.040022
-7.72446e-06
0.0400146
-7.82385e-06
0.039999
-5.3174e-06
0.0399934
-2.19062e-06
0.0399898
7.55957e-06
0.0399822
2.59242e-05
0.0399646
2.48923e-05
0.039983
2.04218e-05
0.0400116
2.24577e-05
0.0399942
2.89326e-05
0.0399831
3.57673e-05
0.0399822
4.28659e-05
0.0399815
5.01155e-05
0.0399811
5.73982e-05
0.0399808
6.45884e-05
0.0399812
7.15539e-05
0.0399824
7.65799e-05
0.0399903
7.70503e-05
0.0400123
8.11154e-05
0.0399929
8.60115e-05
0.0399877
8.99588e-05
0.039989
9.35003e-05
0.0399909
9.67873e-05
0.0399929
9.84087e-05
0.0399955
9.91676e-05
0.0399978
9.90811e-05
0.0399999
9.62019e-05
0.040002
9.45646e-05
0.040004
9.22361e-05
0.0400058
9.12848e-05
0.0400055
8.77793e-05
0.040009
8.37976e-05
0.0400103
7.93969e-05
0.0400114
7.46572e-05
0.0400123
6.96414e-05
0.0400131
6.43945e-05
0.0400137
5.69808e-05
0.0400142
4.34378e-05
0.0400246
2.58218e-05
0.0400408
3.21129e-05
0.040019
2.83646e-05
0.0400152
2.25975e-05
0.0400153
2.08229e-05
0.0400133
2.30494e-05
0.0400033
1.72806e-05
0.0400033
1.15166e-05
0.0400033
5.75768e-06
0.0400033
0.0400033
-3.08567e-06
0.0399975
-4.10825e-06
0.0399953
-7.01137e-06
0.0399969
-9.7344e-06
0.0399963
-1.22172e-05
0.0399956
-1.43988e-05
0.0399946
-1.22185e-05
0.0399955
-7.6164e-06
0.0400042
-8.53281e-06
0.0400067
-8.90855e-06
0.040003
-6.68998e-06
0.0399991
1.2176e-05
0.0400031
-4.23944e-06
0.040031
-9.93356e-06
0.0400047
-8.86223e-06
0.0399924
-3.00443e-06
0.039984
9.64509e-06
0.0399695
1.90849e-05
0.0399551
2.12984e-05
0.0399808
2.02398e-05
0.0400126
2.5836e-05
0.0399886
3.40052e-05
0.0399749
4.26457e-05
0.0399735
5.1634e-05
0.0399725
6.08266e-05
0.0399719
7.0075e-05
0.0399715
7.9414e-05
0.0399719
8.78812e-05
0.0399739
9.49007e-05
0.0399832
9.70482e-05
0.0400101
0.000102623
0.0399873
0.000108639
0.0399817
0.000114088
0.0399836
0.000118089
0.0399869
0.000120207
0.0399908
0.000122222
0.0399935
0.000125129
0.0399949
0.000124965
0.0400001
0.000123783
0.0400032
0.000121651
0.0400061
0.000118656
0.0400088
0.000112868
0.0400113
0.000108405
0.0400134
0.000105338
0.0400133
9.97792e-05
0.0400169
9.37987e-05
0.0400183
8.74828e-05
0.0400194
8.09017e-05
0.0400203
7.21189e-05
0.040023
5.51998e-05
0.0400415
5.01873e-05
0.0400458
4.508e-05
0.0400241
3.7939e-05
0.0400223
3.27848e-05
0.0400204
3.56355e-05
0.0400105
2.84875e-05
0.0400105
2.1351e-05
0.0400105
1.42264e-05
0.0400105
7.11123e-06
0.0400105
0.0400105
-3.84264e-06
0.0400013
-7.60969e-06
0.0399991
-1.12343e-05
0.0400005
-1.46446e-05
0.0399998
-1.77685e-05
0.0399987
-2.0533e-05
0.0399974
-2.08649e-05
0.0399958
-1.46893e-05
0.039998
-1.39375e-05
0.0400059
-1.25352e-05
0.0400016
-1.24133e-05
0.039999
-7.5075e-06
0.0399982
-3.73796e-06
0.0400272
-1.50742e-05
0.0400161
-1.14802e-05
0.0399888
-9.2068e-07
0.0399734
2.46086e-05
0.039944
1.51426e-05
0.0399646
1.86302e-05
0.0399773
2.10309e-05
0.0400102
2.82564e-05
0.0399814
3.82094e-05
0.039965
4.87665e-05
0.039963
5.97726e-05
0.0399615
7.10616e-05
0.0399606
8.26326e-05
0.03996
9.3684e-05
0.0399608
0.000104599
0.039963
0.000113382
0.0399745
0.000117358
0.0400062
0.000124562
0.0399801
0.000132211
0.039974
0.000138449
0.0399773
0.000143789
0.0399816
0.000148373
0.0399862
0.000150782
0.0399911
0.000149826
0.0399958
0.00014955
0.0400004
0.000148025
0.0400047
0.000147338
0.0400068
0.000143598
0.0400126
0.000138915
0.040016
0.000133411
0.0400189
0.000125208
0.0400215
0.000120403
0.0400217
0.000113126
0.0400256
0.000105459
0.0400271
9.74924e-05
0.0400283
7.73111e-05
0.0400432
5.30123e-05
0.0400658
6.25493e-05
0.0400363
5.60221e-05
0.0400307
4.94803e-05
0.0400289
4.89372e-05
0.040021
4.04005e-05
0.040019
3.18823e-05
0.040019
2.33865e-05
0.040019
1.49109e-05
0.0400189
8.45236e-06
0.0400169
0.0400189
-2.68908e-06
0.040004
-9.29163e-06
0.0400057
-1.37287e-05
0.040005
-1.59172e-05
0.0400019
-1.97748e-05
0.0400026
-2.32155e-05
0.0400008
-2.61518e-05
0.0399988
-2.45009e-05
0.0399964
-2.01727e-05
0.0400016
-2.10827e-05
0.0400025
-2.11447e-05
0.0399991
-1.62873e-05
0.0399934
9.57074e-06
0.0400013
-9.44554e-06
0.0400351
-1.93704e-05
0.0399987
-1.01417e-05
0.0399642
4.26194e-06
0.0399296
9.87702e-06
0.039959
1.6665e-05
0.0399705
2.05818e-05
0.0400063
2.95163e-05
0.0399725
4.13628e-05
0.0399531
5.39688e-05
0.0399504
6.71596e-05
0.0399483
8.07156e-05
0.039947
9.43978e-05
0.0399463
0.000107962
0.0399473
0.000121148
0.0399498
0.000131888
0.0399637
0.000138057
0.04
0.000147075
0.0399711
0.000156073
0.039965
0.000163805
0.0399696
0.000169959
0.0399754
0.00017545
0.0399807
0.000178258
0.0399883
0.000179429
0.0399946
0.000178997
0.0400008
0.000177064
0.0400067
0.000171745
0.0400122
0.000169177
0.0400151
0.00016351
0.0400216
0.000156867
0.0400256
0.000149422
0.040029
0.000141312
0.0400298
0.000132651
0.0400342
0.000123558
0.0400361
0.000110159
0.0400417
8.85295e-05
0.0400648
8.07658e-05
0.0400736
7.48553e-05
0.0400422
6.69071e-05
0.0400386
6.69552e-05
0.0400288
5.90162e-05
0.0400289
4.91003e-05
0.0400289
3.92198e-05
0.0400289
2.93759e-05
0.0400288
1.95639e-05
0.0400288
9.77585e-06
0.0400267
0.0400287
-5.63904e-06
0.0400096
-1.11777e-05
0.0400112
-1.45292e-05
0.0400083
-2.16024e-05
0.040009
-2.42982e-05
0.0400053
-2.85218e-05
0.0400051
-3.21732e-05
0.0400024
-3.51521e-05
0.0399993
-2.93533e-05
0.0399958
-2.8682e-05
0.0400018
-2.90354e-05
0.0399994
-2.83119e-05
0.0399926
-2.04216e-05
0.0399934
-2.52372e-05
0.0400399
-2.27569e-05
0.0399962
-6.91863e-06
0.0399483
-3.65874e-06
0.0399263
3.04241e-06
0.0399523
1.31583e-05
0.0399604
1.86512e-05
0.0400008
2.93926e-05
0.0399617
4.32582e-05
0.0399393
5.80793e-05
0.0399355
7.36393e-05
0.0399327
8.96784e-05
0.039931
0.000105923
0.03993
0.000122049
0.0399311
0.000137534
0.0399343
0.000151073
0.0399502
0.000159288
0.0399918
0.000170301
0.0399601
0.000181033
0.0399543
0.000190385
0.0399602
0.000197611
0.0399682
0.000201662
0.0399766
0.000204888
0.0399851
0.000206135
0.0399934
0.000207482
0.0399995
0.000205055
0.0400091
0.00020101
0.0400162
0.000193488
0.0400227
0.000188704
0.0400264
0.000180834
0.0400334
0.00017204
0.0400378
0.000160499
0.0400414
0.000152361
0.0400424
0.00013979
0.0400487
0.000114877
0.0400666
8.38189e-05
0.0400958
9.84937e-05
0.0400589
8.90925e-05
0.0400516
8.77098e-05
0.04004
7.63291e-05
0.0400402
6.49875e-05
0.0400403
5.3699e-05
0.0400402
4.24684e-05
0.0400401
3.32964e-05
0.040038
2.21685e-05
0.0400399
9.07225e-06
0.0400398
0.0400378
-6.70144e-06
0.0400164
-1.1289e-05
0.0400158
-1.9673e-05
0.0400167
-2.37438e-05
0.0400131
-3.13995e-05
0.0400129
-3.65271e-05
0.0400102
-3.90143e-05
0.0400049
-4.27487e-05
0.0400031
-4.56109e-05
0.0399987
-3.74796e-05
0.0399937
-3.62432e-05
0.0399982
-3.77774e-05
0.0399942
-3.39685e-05
0.0399896
-2.06969e-05
0.0400266
-1.98909e-05
0.0399954
6.47411e-06
0.039922
-7.42524e-06
0.0399402
-1.64037e-06
0.0399465
5.83601e-06
0.0399529
1.69649e-05
0.0399897
2.96169e-05
0.0399491
4.36531e-05
0.0399252
6.08798e-05
0.0399183
7.90374e-05
0.0399146
9.78358e-05
0.0399122
0.000116912
0.039911
0.000136104
0.0399119
0.000154421
0.039916
0.00017045
0.0399342
0.000181166
0.0399811
0.00019462
0.0399467
0.000207289
0.0399416
0.000217809
0.0399497
0.000226428
0.0399596
0.00023326
0.0399698
0.000236887
0.0399814
0.000238165
0.0399921
0.000235204
0.0400024
0.000234165
0.0400101
0.00022924
0.0400211
0.000222653
0.0400292
0.000212606
0.0400365
0.000205328
0.0400407
0.000195051
0.040048
0.000183967
0.0400525
0.000170263
0.0400561
0.000156086
0.0400629
0.0001336
0.040089
0.000120945
0.0401085
0.000114089
0.0400657
0.000111223
0.0400545
9.83618e-05
0.0400529
8.55504e-05
0.040053
7.28148e-05
0.040053
6.01656e-05
0.0400529
4.96071e-05
0.0400507
3.5123e-05
0.0400525
2.47104e-05
0.0400503
1.23411e-05
0.0400522
0.0400501
-7.8877e-06
0.0400242
-1.56511e-05
0.0400235
-2.11888e-05
0.0400222
-3.03908e-05
0.0400223
-3.51318e-05
0.0400177
-4.13009e-05
0.0400164
-4.67647e-05
0.0400104
-5.13967e-05
0.0400077
-5.50619e-05
0.0400023
-5.7623e-05
0.0399963
-4.89422e-05
0.0399895
-4.68785e-05
0.0399921
-4.33146e-05
0.0399861
-4.11998e-06
0.0399874
-2.30187e-05
0.0400143
-2.4153e-05
0.0399231
-2.13079e-05
0.0399374
-1.24726e-05
0.0399377
2.36914e-06
0.0399381
2.1192e-05
0.0399708
2.58954e-05
0.0399444
4.22724e-05
0.0399088
6.21208e-05
0.0398985
8.31603e-05
0.0398935
0.000105018
0.0398903
0.000127299
0.0398887
0.000149531
0.0398897
0.000171028
0.0398945
0.000190328
0.0399149
0.000203903
0.0399675
0.000219695
0.0399309
0.000234506
0.0399268
0.00024718
0.039937
0.000256689
0.03995
0.000262535
0.039964
0.000266553
0.0399774
0.000269782
0.0399889
0.000268388
0.0400038
0.000262581
0.0400159
0.000258609
0.0400251
0.00025074
0.0400371
0.000241251
0.0400459
0.000230427
0.0400515
0.000218502
0.04006
0.000205725
0.0400652
0.000188312
0.0400735
0.00015445
0.0400968
0.000128343
0.0401152
0.000139993
0.0400968
0.000135564
0.0400702
0.000123154
0.0400669
0.000108809
0.0400672
9.45661e-05
0.0400673
8.245e-05
0.0400651
6.84555e-05
0.0400669
5.25893e-05
0.0400665
4.08372e-05
0.0400642
2.5167e-05
0.040066
1.35662e-05
0.0400638
0.0400637
-9.20748e-06
0.0400334
-1.82802e-05
0.0400326
-2.71127e-05
0.0400311
-3.35802e-05
0.0400288
-4.35607e-05
0.0400276
-4.89153e-05
0.0400217
-5.75113e-05
0.040019
-6.11962e-05
0.0400114
-6.58322e-05
0.040007
-6.92507e-05
0.0399997
-7.12945e-05
0.0399916
-6.17997e-05
0.0399826
-5.86002e-05
0.0399829
-4.75554e-05
0.0399764
-3.44256e-05
0.0400012
-4.31648e-05
0.0399318
-3.5656e-05
0.0399299
-2.1818e-05
0.0399238
-1.61269e-06
0.0399179
4.29121e-05
0.0399263
3.38286e-05
0.0399535
4.07716e-05
0.0399019
6.15163e-05
0.0398777
8.57526e-05
0.0398693
0.000111066
0.039865
0.00013716
0.0398626
0.000162877
0.039864
0.000188249
0.0398691
0.000210865
0.0398922
0.000227682
0.0399507
0.00024637
0.0399122
0.000263855
0.0399093
0.000278048
0.0399229
0.000289377
0.0399387
0.000297892
0.0399554
0.000302224
0.0399731
0.000301289
0.0399898
0.00030131
0.0400038
0.00029653
0.0400207
0.000287282
0.0400343
0.000279908
0.0400445
0.000268745
0.0400571
0.000254122
0.0400662
0.000242356
0.0400717
0.000225723
0.0400819
0.000198449
0.0401007
0.000158844
0.0401364
0.000160902
0.0401131
0.000164839
0.0400929
0.000150787
0.0400842
0.000134817
0.0400829
0.000118973
0.0400831
0.000103308
0.0400829
8.78217e-05
0.0400806
7.25165e-05
0.0400822
5.93863e-05
0.0400797
4.43992e-05
0.0400792
2.95283e-05
0.0400808
1.47392e-05
0.0400786
0.0400784
-1.06693e-05
0.0400441
-2.11947e-05
0.0400431
-3.14673e-05
0.0400413
-4.13564e-05
0.0400386
-4.87243e-05
0.040035
-5.7433e-05
0.0400304
-6.53298e-05
0.0400269
-7.22549e-05
0.0400183
-7.80413e-05
0.0400128
-8.25093e-05
0.0400042
-8.34692e-05
0.0399925
-8.47421e-05
0.0399839
-7.61228e-05
0.0399743
-6.94459e-05
0.0399697
-3.05371e-05
0.0399623
-4.89552e-05
0.0399503
-4.88437e-05
0.0399298
-3.80449e-05
0.039913
-2.0469e-05
0.0399003
7.90233e-06
0.039898
1.51005e-05
0.0399463
3.27803e-05
0.0398842
5.87066e-05
0.0398518
8.65204e-05
0.0398415
0.000115744
0.0398358
0.000145768
0.0398326
0.000175949
0.0398338
0.000205332
0.0398398
0.000232216
0.0398654
0.00025282
0.0399301
0.000274858
0.0398901
0.000294926
0.0398893
0.000311715
0.0399061
0.000324343
0.0399261
0.000331748
0.039948
0.000338318
0.0399665
0.00033905
0.0399891
0.000334223
0.0400086
0.000330202
0.0400247
0.00032139
0.0400432
0.000308211
0.0400577
0.000297095
0.0400682
0.000282445
0.0400808
0.000266598
0.0400876
0.000243891
0.0401046
0.000214627
0.04013
0.000197008
0.040154
0.000197234
0.0401129
0.000181404
0.0401087
0.000163676
0.0401019
0.000146119
0.0401004
0.000128784
0.0401004
0.000113705
0.040098
9.48719e-05
0.0400994
8.02963e-05
0.0400967
6.19349e-05
0.040098
4.577e-05
0.0400954
3.17597e-05
0.0400948
1.58478e-05
0.0400945
0.0400942
-1.22799e-05
0.0400564
-2.24038e-05
0.0400533
-3.42723e-05
0.0400532
-4.57421e-05
0.0400501
-5.66714e-05
0.0400459
-6.69098e-05
0.0400407
-7.62953e-05
0.0400363
-8.4654e-05
0.0400267
-9.18016e-05
0.0400199
-9.55361e-05
0.0400079
-0.000101648
0.0399986
-0.000103912
0.0399862
-0.000102094
0.0399724
-8.99714e-05
0.0399576
-8.13077e-05
0.0399536
-7.77494e-05
0.0399467
-6.92596e-05
0.0399213
-5.5622e-05
0.0398994
-3.87056e-05
0.0398834
-1.84525e-05
0.0398777
-8.43008e-07
0.0399287
2.38112e-05
0.0398596
5.32679e-05
0.0398223
8.51176e-05
0.0398096
0.000118787
0.0398021
0.000153589
0.0397978
0.000188885
0.0397985
0.000223222
0.0398054
0.000254655
0.0398339
0.000279686
0.039905
0.000305587
0.0398642
0.000329051
0.0398658
0.000348118
0.039887
0.00036242
0.0399118
0.000372665
0.0399378
0.000375341
0.0399638
0.000377499
0.0399869
0.000373528
0.0400126
0.000363904
0.0400344
0.000355155
0.0400519
0.000341827
0.040071
0.000326403
0.0400836
0.000309378
0.0400978
0.000285178
0.0401118
0.000242185
0.0401476
0.000208784
0.0401634
0.000225045
0.0401377
0.000213231
0.0401247
0.000193555
0.0401284
0.000176101
0.0401194
0.000156949
0.0401196
0.000138122
0.0401192
0.000119648
0.0401165
0.000101518
0.0401176
8.37129e-05
0.0401145
6.82014e-05
0.0401135
5.09259e-05
0.0401127
3.38366e-05
0.0401119
1.6879e-05
0.0401114
0.0401111
-1.4044e-05
0.0400704
-2.79309e-05
0.0400672
-4.15535e-05
0.0400668
-5.47715e-05
0.0400633
-6.74373e-05
0.0400586
-7.93935e-05
0.0400526
-8.84662e-05
0.0400453
-9.84745e-05
0.0400367
-0.000105206
0.0400266
-0.000114461
0.0400171
-0.000117977
0.0400022
-0.000121499
0.0399897
-0.000122771
0.0399737
-0.000121483
0.0399563
-0.000109353
0.0399415
-0.000102041
0.0399394
-9.13574e-05
0.0399106
-7.7041e-05
0.0398851
-5.88817e-05
0.0398652
-3.67544e-05
0.0398556
-1.45993e-05
0.0399065
1.13037e-05
0.0398337
4.46797e-05
0.039789
8.10892e-05
0.0397732
0.000119877
0.0397634
0.000160198
0.0397574
0.000201088
0.0397576
0.000241415
0.0397651
0.000278493
0.0397968
0.000308701
0.0398748
0.000339147
0.0398338
0.000366169
0.0398388
0.000387982
0.0398652
0.000404092
0.0398957
0.000415341
0.0399265
0.000419904
0.0399593
0.000417151
0.0399897
0.000413614
0.0400161
0.000403923
0.0400441
0.000390776
0.0400651
0.00037478
0.040087
0.000356646
0.0401018
0.000334878
0.0401196
0.00029601
0.0401506
0.000246576
0.040197
0.000254706
0.0401553
0.000248636
0.0401438
0.000226755
0.0401466
0.000209171
0.040146
0.000185942
0.0401426
0.000167171
0.0401383
0.000146879
0.0401395
0.000127051
0.0401363
0.000109681
0.0401349
8.87082e-05
0.0401355
7.01045e-05
0.0401322
5.18006e-05
0.040131
3.57346e-05
0.040128
1.78181e-05
0.0401293
0.0401289
-1.3958e-05
0.0400844
-3.17673e-05
0.040085
-4.73094e-05
0.0400824
-6.04441e-05
0.0400765
-7.50315e-05
0.0400732
-8.89002e-05
0.0400665
-0.000101886
0.0400583
-0.000113778
0.0400486
-0.000124361
0.0400372
-0.000131394
0.0400242
-0.000140611
0.0400114
-0.000145713
0.0399948
-0.000146386
0.0399744
-0.000146274
0.0399562
-0.000141039
0.0399362
-0.000128263
0.0399266
-0.000119648
0.039902
-0.00010287
0.0398683
-8.36098e-05
0.039846
-5.76668e-05
0.0398296
-1.69497e-05
0.0398658
-1.45589e-06
0.0398182
3.22966e-05
0.0397552
7.38816e-05
0.0397316
0.000118571
0.0397187
0.00016537
0.0397106
0.000213063
0.0397099
0.000260124
0.039718
0.000304079
0.0397529
0.000340523
0.0398384
0.000376356
0.039798
0.000407708
0.0398074
0.000432899
0.03984
0.0004509
0.0398777
0.000460635
0.0399168
0.00046676
0.0399532
0.00046462
0.0399918
0.000456945
0.0400238
0.000444597
0.0400564
0.000428403
0.0400812
0.000409221
0.0401062
0.000385818
0.0401252
0.00035888
0.0401465
0.000319
0.0401905
0.000304708
0.0402113
0.000288078
0.0401719
0.000265683
0.0401662
0.000239695
0.0401726
0.000220051
0.0401656
0.000199042
0.0401636
0.000176662
0.0401607
0.000154922
0.0401612
0.000133795
0.0401574
0.000113234
0.0401555
9.52054e-05
0.0401535
7.5607e-05
0.0401517
5.63727e-05
0.0401502
3.54095e-05
0.040149
1.86496e-05
0.0401461
0.0401476
-1.80351e-05
0.0401024
-3.59151e-05
0.0401028
-5.15358e-05
0.040098
-7.07762e-05
0.0400957
-8.54684e-05
0.0400879
-0.000101465
0.0400825
-0.000116578
0.0400734
-0.000130603
0.0400626
-0.000143307
0.0400499
-0.000154422
0.0400353
-0.000161674
0.0400186
-0.000168709
0.0400018
-0.000173159
0.0399788
-0.000174645
0.0399577
-0.000172687
0.0399343
-0.000166833
0.0399208
-0.000148686
0.0398838
-0.000135738
0.0398553
-0.000111636
0.0398219
-7.80501e-05
0.039796
-4.88474e-06
0.0397926
-5.41426e-06
0.0398187
1.72934e-05
0.0397325
6.27829e-05
0.0396862
0.000114314
0.0396671
0.000168734
0.0396562
0.000224563
0.0396541
0.000280092
0.0396625
0.000331944
0.039701
0.000375849
0.0397945
0.000418146
0.0397557
0.000454791
0.0397708
0.000483406
0.0398114
0.000503413
0.0398577
0.00051561
0.0399046
0.000516824
0.0399519
0.000514628
0.039994
0.000502065
0.0400364
0.000488215
0.0400703
0.000466189
0.0401033
0.000445126
0.0401272
0.000413865
0.0401564
0.000355265
0.0402051
0.000318089
0.0402277
0.000326399
0.040203
0.000310908
0.0401874
0.000283899
0.0401932
0.000257594
0.0401989
0.000231939
0.0401913
0.000209159
0.0401864
0.000183217
0.0401867
0.000162102
0.0401824
0.000139752
0.0401798
0.000118109
0.0401771
9.70929e-05
0.0401746
7.66104e-05
0.0401722
5.85717e-05
0.0401682
3.88533e-05
0.0401687
1.93574e-05
0.0401656
0.040167
-2.02568e-05
0.0401227
-4.0365e-05
0.040123
-6.02355e-05
0.0401179
-7.77346e-05
0.0401132
-9.87373e-05
0.0401089
-0.000115061
0.0400988
-0.000132541
0.0400909
-0.000148963
0.040079
-0.000164083
0.040065
-0.000177625
0.0400488
-0.000189268
0.0400303
-0.00019664
0.0400092
-0.000205326
0.0399875
-0.000206858
0.0399592
-0.0002067
0.0399341
-0.000202255
0.0399163
-0.000193011
0.0398746
-0.000170386
0.0398327
-0.000149746
0.0398012
-0.00012062
0.0397669
-7.26732e-05
0.0397447
-4.53347e-05
0.0397914
-7.3236e-06
0.0396945
4.68604e-05
0.039632
0.000106372
0.0396076
0.000169806
0.0395928
0.000235387
0.0395885
0.000300799
0.0395971
0.000362704
0.0396391
0.000415702
0.0397415
0.000465776
0.0397056
0.000508552
0.039728
0.000541056
0.0397789
0.000563316
0.0398354
0.000575601
0.0398923
0.000577184
0.0399504
0.000570035
0.0400012
0.000555471
0.0400509
0.000535091
0.0400906
0.000510339
0.040128
0.000478477
0.0401591
0.000430627
0.0402043
0.000367958
0.0402678
0.000368662
0.040227
0.000357376
0.0402143
0.000328792
0.040216
0.000297096
0.0402249
0.000270342
0.0402256
0.000244685
0.040217
0.000216129
0.040215
0.000192681
0.0402101
0.000168255
0.0402068
0.000144783
0.0402033
0.000122168
0.0401997
0.000102312
0.0401944
8.10761e-05
0.0401935
5.83407e-05
0.040191
4.00085e-05
0.040187
1.7914e-05
0.0401877
0.0401849
-2.26177e-05
0.0401453
-4.30904e-05
0.0401434
-6.73678e-05
0.0401421
-8.93095e-05
0.0401351
-0.000108786
0.0401284
-0.000131664
0.0401217
-0.000149736
0.040109
-0.000168835
0.0400981
-0.00018468
0.0400809
-0.000200999
0.0400652
-0.000215433
0.0400447
-0.000227613
0.0400214
-0.000237038
0.0399969
-0.000243179
0.0399653
-0.000245413
0.0399364
-0.000241031
0.0399119
-0.000233343
0.0398669
-0.000221575
0.039821
-0.000194943
0.0397746
-0.000164697
0.0397367
-0.000124179
0.0397042
-6.49901e-05
0.0397322
-3.09728e-05
0.0396605
2.49362e-05
0.0395761
9.37602e-05
0.0395388
0.000167953
0.0395186
0.000245343
0.0395111
0.000323237
0.0395192
0.000397085
0.0395653
0.000461371
0.0396772
0.000521003
0.039646
0.00057086
0.0396781
0.000608467
0.0397413
0.000632738
0.0398111
0.000642317
0.0398828
0.000643235
0.0399494
0.000629731
0.0400147
0.000611858
0.0400688
0.000581569
0.0401209
0.000544809
0.0401648
0.000505095
0.0401988
0.000459909
0.0402495
0.000434115
0.0402936
0.000410294
0.0402508
0.000379281
0.0402453
0.000341405
0.0402539
0.00030694
0.0402594
0.000281671
0.0402509
0.000251937
0.0402467
0.000225697
0.0402412
0.000198814
0.040237
0.000173201
0.0402324
0.00014873
0.0402277
0.000127304
0.0402212
0.000102726
0.040219
8.29028e-05
0.0402133
6.16548e-05
0.0402122
4.08473e-05
0.0402078
2.03315e-05
0.0402082
0.0402052
-2.51038e-05
0.0401704
-5.00865e-05
0.0401684
-7.28878e-05
0.040165
-9.74232e-05
0.0401597
-0.000123577
0.0401545
-0.00014519
0.0401433
-0.000168118
0.0401319
-0.000190156
0.0401202
-0.000211059
0.0401018
-0.000230532
0.0400846
-0.000248218
0.0400624
-0.000263689
0.0400368
-0.000274427
0.0400077
-0.000283814
0.0399747
-0.000287176
0.0399397
-0.000285686
0.0399104
-0.000282308
0.0398635
-0.000270216
0.0398089
-0.000250343
0.0397547
-0.000213619
0.0396999
-0.000165149
0.0396557
-6.44133e-05
0.0396314
-4.95567e-05
0.0396456
-2.76721e-06
0.0395293
7.50097e-05
0.039461
0.000162084
0.0394315
0.000254054
0.0394192
0.00034678
0.0394265
0.000435953
0.0394761
0.000514297
0.0395988
0.000585763
0.0395745
0.000644678
0.0396192
0.000687476
0.0396985
0.000713413
0.0397852
0.000723714
0.0398725
0.000718446
0.0399547
0.000700852
0.0400323
0.000669691
0.0401
0.000621823
0.0401688
0.000559527
0.0402271
0.000498913
0.0402594
0.000459361
0.040289
0.000465591
0.0402874
0.000434791
0.0402816
0.000395598
0.0402845
0.000356236
0.0402932
0.000322712
0.0402929
0.000291082
0.0402825
0.000261416
0.0402764
0.000231564
0.0402711
0.000203391
0.0402652
0.000176745
0.040259
0.000153471
0.040251
0.000127357
0.0402473
0.000106278
0.0402401
8.20101e-05
0.0402376
6.24304e-05
0.0402318
3.93215e-05
0.0402309
2.05641e-05
0.040227
0.0402258
-2.76957e-05
0.0401981
-5.52937e-05
0.040196
-8.2761e-05
0.0401924
-0.000110033
0.040187
-0.000134996
0.0401795
-0.000161555
0.0401699
-0.000187555
0.0401579
-0.000212805
0.0401454
-0.000237101
0.0401261
-0.000260124
0.0401077
-0.000279517
0.0400818
-0.000298828
0.0400561
-0.000315547
0.0400244
-0.000328975
0.0399882
-0.000336357
0.0399471
-0.00033279
0.0399069
-0.000334657
0.0398654
-0.00032927
0.0398035
-0.000311157
0.0397366
-0.000282826
0.0396716
-0.000232894
0.0396058
-0.000167975
0.0395665
-0.0001146
0.0395922
-4.19282e-05
0.0394566
4.86255e-05
0.0393705
0.000151003
0.0393291
0.000260657
0.0393095
0.000372816
0.0393143
0.000481026
0.0393679
0.000577677
0.0395022
0.000663893
0.0394883
0.000733301
0.0395498
0.000782453
0.0396493
0.000809895
0.0397578
0.000816973
0.0398654
0.000803187
0.0399685
0.00077458
0.0400609
0.000721594
0.040153
0.000663738
0.0402267
0.000618136
0.0402727
0.000555074
0.0403225
0.000527727
0.0403164
0.000499454
0.0403157
0.000457373
0.0403237
0.000409751
0.0403321
0.000364783
0.0403382
0.00033218
0.0403255
0.000298211
0.0403165
0.000264703
0.0403099
0.000233417
0.0403023
0.000206161
0.0402924
0.000178675
0.0402865
0.00015278
0.0402769
0.000128229
0.0402718
0.00010482
0.0402635
8.43593e-05
0.040258
6.06101e-05
0.0402555
4.14328e-05
0.0402501
2.06045e-05
0.0402478
0.0402464
-3.03686e-05
0.0402285
-6.06693e-05
0.0402263
-9.09017e-05
0.0402227
-0.000119007
0.0402151
-0.000148945
0.0402094
-0.000178615
0.0401995
-0.000209911
0.0401892
-0.000236645
0.0401721
-0.000264639
0.0401541
-0.000289603
0.0401326
-0.000317205
0.0401094
-0.000338971
0.0400779
-0.00036033
0.0400458
-0.000378617
0.0400064
-0.000392905
0.0399614
-0.000398166
0.0399121
-0.000402806
0.03987
-0.000397598
0.0397983
-0.000382797
0.0397218
-0.000356305
0.0396451
-0.000316001
0.0395654
-0.000249909
0.0395004
-0.000170179
0.0395125
-9.4567e-05
0.039381
1.07661e-05
0.0392651
0.000131691
0.0392082
0.000262671
0.0391785
0.000398612
0.0391784
0.000532765
0.0392338
0.000653291
0.0393817
0.000756325
0.0393852
0.000839304
0.0394668
0.000895395
0.0395932
0.00092332
0.0397298
0.000923693
0.039865
0.000902189
0.03999
0.00084579
0.0401173
0.000777712
0.040221
0.000725137
0.0402792
0.000677644
0.0403202
0.000626163
0.040374
0.000578119
0.0403644
0.000524903
0.0403689
0.000473076
0.0403755
0.000422808
0.0403824
0.000380049
0.040381
0.000340673
0.0403649
0.000304588
0.0403526
0.000269455
0.040345
0.000236978
0.0403348
0.000206862
0.0403225
0.00017881
0.0403146
0.00015254
0.0403032
0.0001298
0.0402946
0.000104294
0.040289
8.18295e-05
0.0402805
6.21799e-05
0.0402752
4.11152e-05
0.0402712
2.04374e-05
0.0402685
0.0402668
-3.30917e-05
0.0402616
-6.41383e-05
0.0402574
-9.72004e-05
0.0402557
-0.000132265
0.0402501
-0.000165278
0.0402424
-0.000198203
0.0402325
-0.000228949
0.04022
-0.000261417
0.0402046
-0.000293409
0.0401861
-0.000324732
0.0401639
-0.000353011
0.0401377
-0.000383847
0.0401087
-0.000408652
0.0400706
-0.000432684
0.0400305
-0.000453057
0.0399818
-0.000466521
0.0399256
-0.000471593
0.0398751
-0.000476302
0.039803
-0.000466626
0.0397121
-0.000444011
0.0396225
-0.00040347