/*--------------------------------*- C++ -*----------------------------------*\
  =========                 |
  \\      /  F ield         | OpenFOAM: The Open Source CFD Toolbox
   \\    /   O peration     | Website:  https://openfoam.org
    \\  /    A nd           | Version:  12
     \\/     M anipulation  |
\*---------------------------------------------------------------------------*/
FoamFile
{
    format      ascii;
    class       volVectorField;
    location    "220";
    object      U;
}
// * * * * * * * * * * * * * * * * * * * * * * * * * * * * * * * * * * * * * //

dimensions      [0 1 -1 0 0 0 0];

internalField   nonuniform List<vector> 
16227
(
(2 -5.44345e-06 -1.17788e-22)
(2 -1.62285e-05 1.1818e-22)
(2 -2.67144e-05 -1.18181e-22)
(2 -3.67247e-05 -1.18547e-22)
(2 -4.60625e-05 1.18549e-22)
(2 -5.45316e-05 1.19099e-22)
(2 -6.19478e-05 3.58409e-25)
(2 -6.81179e-05 -2.3925e-22)
(2 -7.28518e-05 3.60288e-22)
(2 -7.59663e-05 -2.40465e-22)
(2 -7.72872e-05 0)
(2 -7.66579e-05 2.42694e-22)
(2 -7.39295e-05 0)
(2 -6.89845e-05 0)
(2 -6.17134e-05 0)
(2 -5.20473e-05 0)
(2 -3.99541e-05 0)
(2 -2.54437e-05 0)
(2 -8.57383e-06 0)
(2 1.05462e-05 0)
(2 3.175e-05 -2.45398e-22)
(2 5.48148e-05 8.70953e-25)
(2 7.94631e-05 2.44525e-22)
(2 0.000105363 0)
(2 0.000132137 -2.39968e-22)
(2 0.000159365 2.39966e-22)
(2 0.000186604 0)
(2 0.000213378 1.16992e-22)
(2 0.000239237 0)
(2 0.000263743 0)
(2 0.00028647 0)
(2 0.000307026 0)
(2 0.000325062 0)
(2 0.000340329 2.09041e-22)
(2 0.000352628 -4.61047e-24)
(2 0.00036184 -2.04435e-22)
(2 0.000367908 0)
(2 0.000370851 1.90105e-22)
(2 0.000370747 -4.81176e-24)
(2 0.00036773 -1.85294e-22)
(2 0.000361978 0)
(2 0.0003537 0)
(2 0.00034313 0)
(2 0.000330517 0)
(2 0.000316108 0)
(2 0.00030015 0)
(2 0.000282878 0)
(2 0.00026453 0)
(2 0.000245293 0)
(2 0.000225336 0)
(2 0.000204828 0)
(2 0.000183902 0)
(2 0.000162696 0)
(2 0.000141269 0)
(2 0.000119679 -6.55291e-23)
(2 9.79786e-05 6.5532e-23)
(2 7.62278e-05 0)
(2 5.44665e-05 0)
(2 3.27042e-05 0)
(2 1.09144e-05 6.36371e-23)
(2.00003 -1.84381e-05 1.26838e-25)
(2.00003 -5.49706e-05 0)
(2.00002 -9.03877e-05 0)
(2.00002 -0.00012404 0)
(2.00002 -0.000155184 -2.00513e-22)
(2.00002 -0.000183118 0)
(2.00002 -0.000207137 0)
(2.00001 -0.000226539 -6.0735e-22)
(2.00001 -0.000240621 4.05167e-22)
(2.00001 -0.000248715 -8.16169e-22)
(2 -0.000250179 3.27193e-21)
(2 -0.00024441 -2.04999e-21)
(1.99999 -0.000230903 1.02826e-21)
(1.99999 -0.000209213 0)
(1.99998 -0.000178958 0)
(1.99997 -0.000139903 0)
(1.99997 -9.19376e-05 0)
(1.99996 -3.51207e-05 0)
(1.99996 3.03168e-05 0)
(1.99995 0.000103943 0)
(1.99995 0.000185114 0)
(1.99994 0.000272973 0)
(1.99994 0.000366455 0)
(1.99994 0.000464304 0)
(1.99994 0.000565081 0)
(1.99994 0.000667205 -4.02434e-22)
(1.99994 0.000769 4.02413e-22)
(1.99994 0.000868704 -1.9779e-22)
(1.99994 0.000964593 0)
(1.99994 0.00105502 0)
(1.99995 0.0011384 0)
(1.99995 0.0012133 0)
(1.99996 0.00127847 0)
(1.99997 0.00133298 0)
(1.99997 0.00137614 0)
(1.99998 0.00140753 -3.37709e-22)
(1.99999 0.001427 8.14745e-24)
(2 0.00143463 8.19684e-24)
(2 0.00143079 8.18006e-24)
(2.00001 0.00141604 3.13174e-22)
(2.00002 0.00139106 2.97114e-22)
(2.00002 0.0013567 -2.97117e-22)
(2.00003 0.00131387 0)
(2.00003 0.00126354 0)
(2.00004 0.00120666 0)
(2.00004 0.00114415 0)
(2.00004 0.00107693 0)
(2.00004 0.00100584 0)
(2.00005 0.00093164 0)
(2.00005 0.000854983 0)
(2.00005 0.000776468 2.34486e-22)
(2.00005 0.000696568 -4.66495e-22)
(2.00005 0.000615764 -4.53895e-22)
(2.00005 0.000534314 4.5391e-22)
(2.00005 0.000452374 -4.42559e-22)
(2.00005 0.00037018 6.61689e-22)
(2.00005 0.000287912 -2.19214e-22)
(2.00005 0.000205646 1.08205e-22)
(2.00005 0.000123425 -1.08208e-22)
(2.00005 4.11859e-05 -2.78896e-25)
(2.00007 -3.12909e-05 1.98758e-22)
(2.00007 -9.32263e-05 0)
(2.00007 -0.000153177 0)
(2.00006 -0.000209964 0)
(2.00006 -0.000262265 2.00508e-22)
(2.00005 -0.000308816 -4.02489e-22)
(2.00004 -0.000348366 -1.2747e-24)
(2.00003 -0.000379645 6.05822e-22)
(2.00002 -0.000401407 2.02849e-22)
(2.00001 -0.000412454 8.16265e-22)
(2 -0.000411646 -8.1465e-22)
(1.99998 -0.000397851 -1.63977e-21)
(1.99997 -0.000370188 2.06166e-22)
(1.99995 -0.000327914 0)
(1.99993 -0.000270305 2.07531e-22)
(1.99992 -0.000196941 0)
(1.9999 -0.000107644 0)
(1.99988 -2.51417e-06 0)
(1.99986 0.000118012 -8.34996e-22)
(1.99985 0.000253166 8.34868e-22)
(1.99983 0.000401729 -4.16159e-22)
(1.99982 0.00056217 4.16131e-22)
(1.99981 0.000732547 0)
(1.9998 0.000910563 -4.10209e-22)
(1.9998 0.00109359 3.11517e-24)
(1.9998 0.00127875 4.07026e-22)
(1.9998 0.00146297 0)
(1.99981 0.00164307 0)
(1.99982 0.00181591 0)
(1.99983 0.00197844 0)
(1.99984 0.00212781 1.85935e-22)
(1.99986 0.0022614 -3.75897e-22)
(1.99988 0.00237704 0)
(1.9999 0.00247304 0)
(1.99993 0.00254815 3.45856e-22)
(1.99995 0.00260171 -3.45835e-22)
(1.99997 0.00263346 0)
(2 0.00264366 0)
(2.00002 0.002633 0)
(2.00004 0.00260251 0)
(2.00006 0.00255356 0)
(2.00008 0.0024877 0)
(2.00009 0.00240664 -1.4228e-22)
(2.00011 0.00231218 0)
(2.00012 0.00220604 0)
(2.00013 0.00208994 0)
(2.00014 0.00196557 -1.2586e-22)
(2.00014 0.00183446 2.54194e-22)
(2.00015 0.00169794 0)
(2.00015 0.00155724 1.19929e-22)
(2.00016 0.00141342 0)
(2.00016 0.00126735 2.31923e-22)
(2.00016 0.00111983 4.5235e-22)
(2.00016 0.000971263 1.05793e-22)
(2.00016 0.000821996 -4.46197e-22)
(2.00016 0.000672468 2.18362e-22)
(2.00016 0.000522918 -2.18442e-22)
(2.00016 0.000373423 0)
(2.00016 0.000224068 0)
(2.00016 7.47401e-05 -1.07168e-22)
(2.00015 -4.52209e-05 0)
(2.00015 -0.000134674 0)
(2.00014 -0.000221262 -1.9921e-22)
(2.00013 -0.00030326 0)
(2.00012 -0.000378747 -2.00462e-22)
(2.0001 -0.000445895 2.00456e-22)
(2.00009 -0.000502868 0)
(2.00007 -0.000547832 -6.07702e-22)
(2.00004 -0.000578951 6.06838e-22)
(2.00002 -0.000594469 0)
(1.99999 -0.000592733 -8.19605e-22)
(1.99996 -0.000572032 -2.46513e-21)
(1.99992 -0.000531059 -4.12094e-22)
(1.99989 -0.00046875 0)
(1.99985 -0.00038398 -2.07526e-22)
(1.99982 -0.000276133 0)
(1.99978 -0.000144891 0)
(1.99974 9.61353e-06 1.6742e-21)
(1.99971 0.000186773 -1.67385e-21)
(1.99967 0.000385511 0)
(1.99964 0.0006041 -4.17498e-22)
(1.99962 0.000840199 1.30403e-24)
(1.9996 0.001091 1.87229e-24)
(1.99958 0.0013531 4.1425e-22)
(1.99957 0.00162263 0)
(1.99957 0.0018953 0)
(1.99958 0.00216656 0)
(1.99959 0.00243166 1.9771e-22)
(1.99961 0.00268589 -7.9735e-25)
(1.99964 0.00292479 1.9173e-22)
(1.99967 0.003144 -1.9186e-24)
(1.99971 0.00333969 0)
(1.99975 0.00350862 0)
(1.9998 0.00364831 0)
(1.99985 0.00375696 -3.46194e-22)
(1.9999 0.00383357 8.32046e-24)
(1.99995 0.00387786 8.43497e-24)
(2 0.00389033 8.47575e-24)
(2.00004 0.00387204 6.33375e-22)
(2.00009 0.00382455 -3.12449e-22)
(2.00013 0.00374998 0)
(2.00017 0.00365071 -1.45723e-22)
(2.0002 0.00352931 1.42201e-22)
(2.00023 0.00338841 0)
(2.00025 0.00323066 0)
(2.00028 0.00305867 0)
(2.00029 0.00287487 -1.28253e-22)
(2.00031 0.00268151 0)
(2.00032 0.00248056 0)
(2.00033 0.00227383 -2.39022e-22)
(2.00033 0.00206284 -4.64602e-22)
(2.00034 0.00184886 9.21198e-22)
(2.00034 0.00163304 -4.56778e-22)
(2.00034 0.00141578 -5.5548e-22)
(2.00034 0.00119782 4.43559e-22)
(2.00034 0.0009797 0)
(2.00034 0.000761696 0)
(2.00034 0.000543838 1.06935e-22)
(2.00034 0.000326276 0)
(2.00034 0.000108797 0)
(2.00025 -6.06244e-05 0)
(2.00025 -0.000180521 0)
(2.00024 -0.000296671 4.50899e-25)
(2.00022 -0.000406791 0)
(2.0002 -0.000508375 0)
(2.00018 -0.000599004 -4.00977e-22)
(2.00015 -0.000676245 -6.0509e-22)
(2.00011 -0.000737681 6.03813e-22)
(2.00007 -0.000780879 0)
(2.00002 -0.000803475 0)
(1.99997 -0.000803267 -8.19789e-22)
(1.99992 -0.000777946 4.92685e-21)
(1.99986 -0.000725669 -4.11162e-22)
(1.9998 -0.00064502 4.13515e-22)
(1.99974 -0.000534437 0)
(1.99968 -0.000393026 0)
(1.99961 -0.000220288 8.3865e-22)
(1.99955 -1.6332e-05 2.5244e-21)
(1.99949 0.000218176 -1.25855e-21)
(1.99943 0.000481876 0)
(1.99938 0.000772589 0)
(1.99933 0.00108703 0)
(1.9993 0.00142158 0)
(1.99927 0.00177168 -4.1402e-22)
(1.99926 0.0021321 3.05665e-24)
(1.99925 0.00249706 3.726e-24)
(1.99926 0.00286037 4.07025e-22)
(1.99929 0.00321558 2.00799e-22)
(1.99932 0.00355628 -9.78256e-25)
(1.99937 0.00387635 -1.95728e-22)
(1.99943 0.00416984 5.70043e-22)
(1.9995 0.00443151 -3.78466e-22)
(1.99957 0.004657 -3.63314e-22)
(1.99965 0.00484296 3.63265e-22)
(1.99974 0.00498698 3.46712e-22)
(1.99983 0.00508775 -3.46676e-22)
(1.99992 0.00514498 0)
(2 0.00515943 0)
(2.00008 0.00513266 -3.11955e-22)
(2.00016 0.0050669 3.11951e-22)
(2.00023 0.00496507 2.94994e-22)
(2.0003 0.00483051 -1.49358e-22)
(2.00035 0.00466673 0)
(2.0004 0.00447731 0)
(2.00045 0.00426595 0)
(2.00048 0.00403609 0)
(2.00051 0.00379101 0)
(2.00054 0.00353376 0)
(2.00056 0.00326696 -1.20749e-22)
(2.00057 0.00299295 -5.87103e-22)
(2.00058 0.0027138 4.69953e-22)
(2.00059 0.00243118 4.52998e-22)
(2.00059 0.00214641 -6.76591e-22)
(2.0006 0.00186002 4.3984e-22)
(2.0006 0.00157314 -4.39878e-22)
(2.0006 0.00128635 0)
(2.0006 0.000999901 0)
(2.0006 0.000713781 -1.01673e-24)
(2.0006 0.000428169 0)
(2.0006 0.000142736 0)
(2.00039 -7.77008e-05 -1.97088e-22)
(2.00038 -0.000231363 0)
(2.00037 -0.000380402 5.52459e-26)
(2.00034 -0.000521979 1.98678e-22)
(2.00031 -0.000653 0)
(2.00027 -0.000770443 4.43026e-25)
(2.00023 -0.000871273 -4.02312e-22)
(2.00017 -0.000952451 4.02244e-22)
(2.00011 -0.00101095 0)
(2.00004 -0.00104373 0)
(1.99996 -0.00104802 4.08926e-22)
(1.99988 -0.00102091 1.64405e-21)
(1.99979 -0.000959809 -8.25306e-22)
(1.9997 -0.000862857 4.15445e-22)
(1.9996 -0.000728155 0)
(1.9995 -0.000554369 -4.19532e-22)
(1.9994 -0.000340755 4.19692e-22)
(1.9993 -8.72686e-05 4.96668e-24)
(1.99921 0.000205409 -1.89687e-21)
(1.99912 0.000535757 -4.2219e-22)
(1.99904 0.000901155 4.24197e-22)
(1.99897 0.00129727 1.00275e-24)
(1.99891 0.00171977 4.20951e-22)
(1.99887 0.00216281 0)
(1.99885 0.00261971 0)
(1.99884 0.00308305 0)
(1.99886 0.00354483 0)
(1.99889 0.00399668 -2.00773e-22)
(1.99895 0.00443026 0)
(1.99902 0.00483762 0)
(1.99911 0.00521102 5.74569e-22)
(1.99922 0.00554354 -3.80489e-22)
(1.99934 0.00582959 0)
(1.99947 0.00606489 0)
(1.9996 0.00624635 0)
(1.99974 0.00637239 0)
(1.99988 0.00644275 3.29409e-22)
(2.00001 0.00645847 -9.04987e-24)
(2.00014 0.00642181 -4.78096e-22)
(2.00026 0.00633582 0)
(2.00037 0.00620433 0)
(2.00047 0.00603177 2.85441e-22)
(2.00056 0.00582274 -4.25707e-22)
(2.00063 0.00558197 0)
(2.0007 0.00531419 0)
(2.00075 0.00502383 0)
(2.0008 0.00471509 0)
(2.00083 0.00439181 0)
(2.00086 0.00405729 3.58358e-22)
(2.00088 0.00371452 9.2896e-22)
(2.0009 0.00336598 -9.30522e-22)
(2.00091 0.00301382 4.4833e-22)
(2.00091 0.00265921 -2.24996e-22)
(2.00092 0.00230328 0)
(2.00092 0.00194732 1.07413e-22)
(2.00092 0.00159183 0)
(2.00092 0.00123701 0)
(2.00092 0.000882867 -1.05881e-22)
(2.00092 0.000529508 0)
(2.00092 0.000176473 1.03603e-22)
(2.00056 -9.67526e-05 7.42419e-25)
(2.00055 -0.000288114 0)
(2.00053 -0.000473984 0)
(2.0005 -0.000650981 -1.97876e-22)
(2.00045 -0.000815418 0)
(2.00039 -0.000963664 1.99732e-22)
(2.00033 -0.00109208 -2.00747e-22)
(2.00025 -0.00119696 4.01709e-22)
(2.00016 -0.00127468 0)
(2.00006 -0.00132149 -8.15421e-22)
(1.99995 -0.00133392 4.06594e-22)
(1.99983 -0.00130854 5.09462e-24)
(1.99971 -0.00124182 1.65996e-21)
(1.99957 -0.00113125 -8.32169e-22)
(1.99943 -0.000974709 -2.10409e-24)
(1.99929 -0.000770213 -2.12535e-22)
(1.99914 -0.00051675 4.22714e-21)
(1.999 -0.000213846 -1.6868e-21)
(1.99886 0.000137966 -2.75823e-21)
(1.99873 0.000536836 3.83654e-21)
(1.99862 0.000979929 4.28465e-22)
(1.99851 0.00146172 -4.24374e-22)
(1.99843 0.00197731 1.46043e-24)
(1.99837 0.00251935 4.22731e-22)
(1.99834 0.00307969 0)
(1.99833 0.00364902 0)
(1.99835 0.00421731 0)
(1.9984 0.00477402 0)
(1.99848 0.00530859 2.013e-22)
(1.99859 0.00581095 0)
(1.99872 0.00627126 -5.79792e-22)
(1.99888 0.00668073 0)
(1.99905 0.00703233 3.66515e-22)
(1.99924 0.00732067 -3.66428e-22)
(1.99943 0.00754198 3.4834e-22)
(1.99963 0.00769446 -9.34962e-24)
(1.99983 0.0077779 -6.68342e-22)
(2.00002 0.00779379 3.29411e-22)
(2.00021 0.00774523 -1.52861e-22)
(2.00038 0.00763626 3.10554e-22)
(2.00054 0.0074719 1.48053e-22)
(2.00068 0.00725778 0)
(2.00081 0.00699981 1.40154e-22)
(2.00091 0.00670404 0)
(2.00101 0.0063763 0)
(2.00108 0.0060222 1.27542e-22)
(2.00115 0.00564686 -1.24121e-22)
(2.0012 0.00525498 0)
(2.00123 0.00485053 1.41183e-21)
(2.00126 0.00443717 8.99065e-22)
(2.00128 0.00401794 -1.8397e-21)
(2.0013 0.00359513 -4.42721e-22)
(2.0013 0.00316994 9.87386e-22)
(2.00131 0.00274422 -4.35725e-22)
(2.00131 0.0023191 -1.07383e-22)
(2.00131 0.001895 0)
(2.00131 0.00147212 2.08076e-22)
(2.00131 0.00105041 -1.04284e-22)
(2.0013 0.000629872 0)
(2.0013 0.000209872 -1.47467e-24)
(2.00077 -0.000118065 1.96332e-22)
(2.00076 -0.000351645 0)
(2.00073 -0.000578898 0)
(2.00068 -0.000795883 1.97104e-22)
(2.00062 -0.000998345 -6.9393e-25)
(2.00055 -0.00118205 1.98468e-22)
(2.00046 -0.00134272 -1.99413e-22)
(2.00035 -0.001476 -6.03573e-22)
(2.00023 -0.0015776 4.02571e-22)
(2.0001 -0.00164305 -8.14799e-22)
(1.99995 -0.00166806 -2.09469e-22)
(1.99979 -0.00164859 1.23158e-21)
(1.99961 -0.00158035 -3.30953e-21)
(1.99943 -0.00145967 -1.67117e-21)
(1.99924 -0.00128399 1.67207e-21)
(1.99904 -0.00105097 -2.10567e-22)
(1.99884 -0.000758981 5.10812e-21)
(1.99865 -0.000407077 -8.47299e-22)
(1.99846 4.72444e-06 -8.51443e-22)
(1.99828 0.000474177 -2.5575e-21)
(1.99811 0.000998415 4.34805e-22)
(1.99797 0.0015707 0)
(1.99785 0.00218551 0)
(1.99777 0.002834 -4.24944e-22)
(1.99772 0.00350632 2.85837e-24)
(1.9977 0.00419103 4.21828e-22)
(1.99773 0.00487583 0)
(1.9978 0.00554764 4.07768e-22)
(1.99791 0.00619328 -6.08798e-22)
(1.99806 0.00680023 0)
(1.99824 0.00735616 1.88148e-22)
(1.99846 0.00785003 -7.63905e-22)
(1.9987 0.00827321 8.93688e-24)
(1.99896 0.00861906 7.27819e-22)
(1.99923 0.00888302 -9.67397e-24)
(1.99951 0.00906302 -3.49369e-22)
(1.99978 0.00915914 0)
(2.00004 0.00917352 3.19483e-22)
(2.0003 0.00911022 -9.82644e-24)
(2.00053 0.0089746 -3.09621e-22)
(2.00075 0.00877304 -2.95165e-22)
(2.00094 0.0085128 0)
(2.00111 0.00820119 0)
(2.00126 0.00784576 -1.3375e-22)
(2.00138 0.00745371 0)
(2.00148 0.00703183 -2.53437e-22)
(2.00156 0.0065863 1.24045e-22)
(2.00163 0.00612272 -2.38514e-22)
(2.00168 0.00564583 -1.40194e-21)
(2.00171 0.0051598 -9.0602e-22)
(2.00174 0.00466842 4.61345e-22)
(2.00176 0.00417356 -8.19751e-24)
(2.00176 0.00367722 -6.52377e-22)
(2.00177 0.00318151 2.12793e-22)
(2.00177 0.0026872 0)
(2.00177 0.00219477 0)
(2.00176 0.00170435 -1.72285e-24)
(2.00176 0.00121578 0)
(2.00176 0.000728881 0)
(2.00176 0.000242798 -1.02095e-22)
(2.00103 -0.000141937 0)
(2.00101 -0.000422837 0)
(2.00097 -0.000696588 1.9552e-22)
(2.00092 -0.000958751 -1.97014e-22)
(2.00084 -0.00120449 0)
(2.00074 -0.00142897 -3.96188e-22)
(2.00062 -0.00162728 1.98315e-22)
(2.00049 -0.00179442 1.99608e-22)
(2.00033 -0.00192532 0)
(2.00015 -0.00201482 0)
(1.99996 -0.00205774 -6.15575e-22)
(1.99975 -0.00204923 4.08567e-22)
(1.99952 -0.0019843 1.66419e-21)
(1.99928 -0.00185783 5.02045e-21)
(1.99902 -0.00166658 0)
(1.99876 -0.00140807 -8.49982e-22)
(1.9985 -0.00107936 -3.40659e-21)
(1.99824 -0.000679146 -8.61383e-22)
(1.99798 -0.000206654 -1.72209e-21)
(1.99774 0.000335556 4.30102e-22)
(1.99752 0.000944892 -8.6281e-22)
(1.99733 0.00161325 1.65784e-25)
(1.99717 0.00233457 9.60985e-25)
(1.99705 0.00309848 4.32028e-22)
(1.99698 0.00389312 0)
(1.99696 0.00470476 0)
(1.99699 0.00551835 0)
(1.99708 0.00631786 2.09432e-22)
(1.99723 0.00708705 -2.06158e-22)
(1.99743 0.00781042 0)
(1.99767 0.00847267 3.85474e-22)
(1.99796 0.00906007 -3.89907e-22)
(1.99828 0.00956207 0)
(1.99863 0.00997061 0)
(1.99899 0.0102803 5.29286e-22)
(1.99936 0.0104888 -3.50672e-22)
(1.99972 0.0105967 -3.29509e-22)
(2.00007 0.010607 6.48367e-22)
(2.00041 0.0105251 -3.18861e-22)
(2.00072 0.0103579 0)
(2.001 0.0101136 4.35665e-22)
(2.00125 0.00980125 -2.88571e-22)
(2.00147 0.00943008 -1.36569e-22)
(2.00166 0.00900922 2.65804e-22)
(2.00182 0.00854747 0)
(2.00195 0.00805292 1.25897e-22)
(2.00205 0.00753291 -2.41144e-22)
(2.00214 0.00699394 2.38354e-22)
(2.0022 0.00644158 -8.93424e-22)
(2.00224 0.00588073 4.84313e-22)
(2.00227 0.00531535 2.25063e-22)
(2.00229 0.00474722 1.07117e-22)
(2.0023 0.0041793 -1.07146e-22)
(2.0023 0.00361331 -1.05475e-22)
(2.0023 0.00304999 2.04674e-22)
(2.00229 0.00248977 -1.05224e-24)
(2.00229 0.00193261 -2.036e-22)
(2.00228 0.00137817 9.93961e-23)
(2.00228 0.000826018 0)
(2.00227 0.000275066 0)
(2.00134 -0.000168644 0)
(2.00131 -0.000502516 0)
(2.00127 -0.000828483 -3.8977e-22)
(2.00119 -0.00114161 0)
(2.0011 -0.00143652 0)
(2.00097 -0.00170779 9.72002e-25)
(2.00083 -0.00194987 0)
(2.00065 -0.00215707 -2.00164e-22)
(2.00045 -0.00232358 -2.02003e-22)
(2.00023 -0.00244343 2.01628e-22)
(1.99998 -0.00251054 -8.19483e-22)
(1.99972 -0.00251902 8.19579e-22)
(1.99942 -0.00246307 0)
(1.99912 -0.00233633 -5.00318e-21)
(1.99879 -0.00213418 -8.32188e-22)
(1.99846 -0.00185406 8.6563e-22)
(1.99812 -0.00149124 -5.14856e-21)
(1.99777 -0.00104374 1.72855e-21)
(1.99744 -0.00051006 -8.67108e-22)
(1.99713 0.000107114 0)
(1.99684 0.00080585 -8.81816e-22)
(1.99658 0.0015767 0)
(1.99637 0.00241316 -4.38135e-22)
(1.99621 0.00330309 4.37985e-22)
(1.99611 0.00423258 -4.33648e-22)
(1.99608 0.00518511 2.15683e-22)
(1.99612 0.00614252 0)
(1.99623 0.00708523 -2.09456e-22)
(1.99642 0.00799324 6.24745e-22)
(1.99667 0.00884758 2.05171e-22)
(1.99699 0.00962921 -3.99693e-22)
(1.99737 0.0103212 -1.86535e-22)
(1.99779 0.0109108 3.84602e-22)
(1.99824 0.011388 0)
(1.99871 0.0117468 1.73845e-22)
(1.99919 0.0119845 -1.12623e-23)
(1.99966 0.0121025 -1.13089e-23)
(2.00012 0.0121049 -3.29397e-22)
(2.00055 0.0119989 3.07112e-22)
(2.00094 0.0117937 -4.57417e-22)
(2.0013 0.0114995 1.44931e-22)
(2.00162 0.0111276 0)
(2.0019 0.0106894 1.36472e-22)
(2.00214 0.010196 -1.3205e-22)
(2.00234 0.00965804 0)
(2.0025 0.00908499 0)
(2.00262 0.00848548 2.40979e-22)
(2.00272 0.00786703 -2.84041e-24)
(2.00279 0.00723579 -2.31751e-23)
(2.00284 0.00659776 8.89653e-22)
(2.00287 0.00595611 2.18218e-22)
(2.00289 0.00531375 1.04705e-22)
(2.0029 0.00467372 1.03185e-22)
(2.0029 0.00403741 -1.53268e-24)
(2.00289 0.00340552 -1.0394e-22)
(2.00288 0.00277834 0)
(2.00287 0.00215556 0)
(2.00287 0.00153658 -1.96548e-22)
(2.00286 0.000920723 0)
(2.00286 0.000306502 0)
(2.0017 -0.000198449 0)
(2.00167 -0.0005915 0)
(2.00161 -0.000975933 3.28775e-25)
(2.00152 -0.00134642 1.93885e-22)
(2.0014 -0.001697 0)
(2.00125 -0.00202175 1.9655e-22)
(2.00107 -0.00231448 1.97936e-22)
(2.00086 -0.0025688 1.4761e-24)
(2.00062 -0.00277812 1.09278e-24)
(2.00034 -0.00293561 -2.02801e-22)
(2.00004 -0.00303425 2.02819e-22)
(1.9997 -0.00306693 2.05658e-22)
(1.99934 -0.00302688 -4.15691e-22)
(1.99895 -0.00290666 -3.3609e-21)
(1.99854 -0.00269944 -8.57308e-22)
(1.99812 -0.00240212 3.41605e-21)
(1.99769 -0.00200892 2.59126e-21)
(1.99726 -0.00151608 -1.743e-21)
(1.99683 -0.00092133 1.75589e-21)
(1.99643 -0.000227178 2.67347e-21)
(1.99605 0.000565738 4.37657e-22)
(1.99572 0.00144637 -4.09201e-24)
(1.99544 0.00240789 -4.45107e-22)
(1.99523 0.0034364 8.88625e-22)
(1.99509 0.0045157 -4.43491e-22)
(1.99505 0.00562608 2.17859e-22)
(1.99509 0.0067456 0)
(1.99523 0.00785045 2.16652e-22)
(1.99546 0.00891609 2.16388e-22)
(1.99579 0.00991924 -2.09362e-22)
(1.9962 0.0108362 1.97245e-22)
(1.99668 0.0116463 1.96069e-22)
(1.99721 0.0123337 1.84935e-22)
(1.99779 0.0128866 -3.77735e-22)
(1.99839 0.0132978 0)
(1.999 0.0135649 -3.41641e-22)
(1.9996 0.0136901 1.21754e-23)
(2.00018 0.0136794 3.29229e-22)
(2.00072 0.0135422 -3.05395e-22)
(2.00122 0.0132903 1.2388e-23)
(2.00167 0.012937 5.69778e-24)
(2.00206 0.0124961 -4.10772e-22)
(2.0024 0.0119817 2.72808e-22)
(2.00269 0.0114072 -1.28086e-22)
(2.00293 0.0107852 -1.23655e-22)
(2.00312 0.0101268 -4.75912e-22)
(2.00327 0.00944187 1.39965e-21)
(2.00339 0.008739 -8.46197e-25)
(2.00347 0.00802521 1.79605e-21)
(2.00352 0.00730733 6.40309e-22)
(2.00355 0.00658752 -1.09156e-22)
(2.00357 0.00586997 -2.09189e-22)
(2.00357 0.0051575 -1.00758e-22)
(2.00357 0.00445113 1.00792e-22)
(2.00355 0.00375146 -9.97859e-23)
(2.00354 0.00305846 -9.70537e-23)
(2.00353 0.00237159 9.70862e-23)
(2.00351 0.00168987 1.37622e-24)
(2.00351 0.00101226 9.58005e-23)
(2.0035 0.000336865 0)
(2.00213 -0.000231594 0)
(2.00209 -0.000690512 0)
(2.00202 -0.0011402 0)
(2.00192 -0.00157496 -1.93172e-22)
(2.00177 -0.00198836 1.93143e-22)
(2.00159 -0.00237397 -1.95394e-22)
(2.00137 -0.00272497 1.95378e-22)
(2.00112 -0.00303431 0)
(2.00082 -0.00329458 0)
(2.00049 -0.00349806 2.02283e-22)
(2.00012 -0.00363673 -4.06733e-22)
(1.99971 -0.00370212 -1.13119e-24)
(1.99927 -0.00368619 8.35921e-22)
(1.99879 -0.00358055 2.52406e-21)
(1.99829 -0.00337569 1.71036e-21)
(1.99777 -0.00306701 -1.71384e-21)
(1.99723 -0.00264843 -1.74921e-21)
(1.99669 -0.00211336 1.09633e-21)
(1.99616 -0.00145853 -8.9329e-22)
(1.99564 -0.000686 4.70713e-23)
(1.99517 0.00020557 -1.8034e-21)
(1.99474 0.00120483 3.61959e-21)
(1.99438 0.00230298 -4.52815e-22)
(1.9941 0.00348483 0)
(1.99392 0.00473177 0)
(1.99385 0.00602049 0)
(1.99389 0.00732438 0)
(1.99406 0.00861466 -2.16714e-22)
(1.99435 0.00986101 2.2149e-22)
(1.99475 0.0110349 2.93776e-26)
(1.99527 0.0121068 0)
(1.99587 0.0130511 1.92608e-22)
(1.99655 0.0138486 -2.01192e-22)
(1.99728 0.0144852 1.88831e-22)
(1.99803 0.0149524 3.55807e-22)
(1.9988 0.0152481 -5.30511e-22)
(1.99955 0.0153761 -3.29053e-22)
(2.00027 0.0153447 1.67962e-22)
(2.00094 0.0151666 0)
(2.00155 0.014857 1.49086e-22)
(2.0021 0.0144327 1.65131e-24)
(2.00258 0.0139111 1.96641e-24)
(2.00299 0.0133092 -1.30537e-22)
(2.00334 0.0126431 -2.46772e-22)
(2.00362 0.0119277 3.72789e-22)
(2.00384 0.0111759 -9.30588e-22)
(2.00401 0.0103988 9.30662e-22)
(2.00414 0.00960661 -1.79796e-21)
(2.00423 0.00880629 1.9169e-21)
(2.00428 0.00800534 -6.39755e-22)
(2.00431 0.00720558 0)
(2.00432 0.00641208 9.97818e-23)
(2.00432 0.00562705 -9.98191e-23)
(2.0043 0.00485121 0)
(2.00428 0.00408495 0)
(2.00426 0.0033278 0)
(2.00424 0.00257892 0)
(2.00423 0.00183674 0)
(2.00421 0.00109987 0)
(2.00421 0.000365883 0)
(2.00263 -0.000268287 0)
(2.00258 -0.0008002 0)
(2.0025 -0.00132238 0)
(2.00237 -0.00182887 0)
(2.0022 -0.00231276 0)
(2.00199 -0.00276724 1.9395e-22)
(2.00173 -0.00318489 -3.89447e-22)
(2.00143 -0.00355801 1.95525e-22)
(2.00108 -0.0038784 -1.99376e-22)
(2.00068 -0.00413734 -2.2277e-24)
(2.00024 -0.00432575 2.01645e-22)
(1.99975 -0.00443384 0)
(1.99922 -0.00445182 -4.21521e-22)
(1.99864 -0.00437017 -1.28144e-21)
(1.99803 -0.00417742 8.56174e-21)
(1.9974 -0.00386546 -3.44393e-21)
(1.99674 -0.00342749 1.75526e-21)
(1.99607 -0.00285469 2.28429e-24)
(1.99541 -0.00214187 1.11941e-21)
(1.99477 -0.00128969 -1.77664e-21)
(1.99417 -0.000294876 -3.68984e-21)
(1.99362 0.000832077 1.69407e-23)
(1.99316 0.00207962 0)
(1.9928 0.00343203 -4.61975e-22)
(1.99256 0.00486794 1.80579e-24)
(1.99245 0.00635963 4.59617e-22)
(1.99249 0.00787515 0)
(1.99269 0.00937937 0)
(1.99304 0.010835 -2.17338e-22)
(1.99354 0.0122066 -4.29464e-22)
(1.99418 0.0134574 4.12981e-22)
(1.99494 0.0145558 -2.11023e-22)
(1.99578 0.0154782 0)
(1.99669 0.0162072 -5.61205e-22)
(1.99763 0.0167337 1.88873e-22)
(1.99858 0.0170559 3.42323e-22)
(1.99951 0.0171799 -3.42907e-22)
(2.00039 0.0171176 1.60842e-22)
(2.00121 0.0168856 1.47613e-22)
(2.00195 0.0165038 -4.46661e-22)
(2.00262 0.0159935 1.99652e-24)
(2.00319 0.0153764 2.33904e-24)
(2.00367 0.0146733 1.30411e-22)
(2.00408 0.0139032 2.82113e-24)
(2.0044 0.0130836 0)
(2.00465 0.0122292 2.32487e-24)
(2.00484 0.0113524 9.06157e-22)
(2.00498 0.0104653 -1.70056e-21)
(2.00507 0.00957382 5.26558e-23)
(2.00512 0.0086867 -1.03579e-22)
(2.00515 0.00780552 0)
(2.00515 0.00693552 9.67873e-23)
(2.00513 0.0060782 -9.68272e-23)
(2.00511 0.00523398 0)
(2.00508 0.00440284 0)
(2.00505 0.00358373 0)
(2.00502 0.00277539 9.09064e-23)
(2.00499 0.00197565 -9.09377e-23)
(2.00498 0.00118263 0)
(2.00497 0.000393253 0)
(2.0032 -0.000308694 0)
(2.00315 -0.000921035 0)
(2.00305 -0.00152333 0)
(2.00291 -0.0021094 0)
(2.00271 -0.00267199 0)
(2.00246 -0.00320396 -1.92254e-22)
(2.00216 -0.00369738 3.86214e-22)
(2.00181 -0.00414391 2.02126e-24)
(2.0014 -0.0045346 2.26278e-24)
(2.00094 -0.00485969 2.0326e-22)
(2.00042 -0.00510897 -6.05075e-22)
(1.99984 -0.0052713 -2.88271e-24)
(1.9992 -0.00533495 2.06453e-22)
(1.99852 -0.00528862 -4.29101e-22)
(1.99779 -0.0051193 -2.56258e-21)
(1.99702 -0.00481448 -2.60624e-21)
(1.99622 -0.00436542 -5.16882e-24)
(1.99541 -0.00376163 2.15915e-22)
(1.99459 -0.00299457 6.78181e-22)
(1.9938 -0.00206239 -2.75555e-21)
(1.99305 -0.000960273 -2.89872e-21)
(1.99237 0.000303817 -9.30532e-22)
(1.99178 0.0017152 0)
(1.99131 0.00325827 -4.73333e-22)
(1.99099 0.00490838 1.36219e-24)
(1.99084 0.00663294 4.71336e-22)
(1.99087 0.00839331 2.36203e-22)
(1.99109 0.0101468 0)
(1.99152 0.0118469 4.56669e-22)
(1.99213 0.0134498 -6.61947e-22)
(1.99292 0.0149094 2.16844e-22)
(1.99385 0.0161861 -4.07281e-22)
(1.9949 0.0172507 5.97332e-22)
(1.99602 0.0180824 -1.5521e-23)
(1.99719 0.0186707 -1.92652e-22)
(1.99835 0.0190154 1.75442e-22)
(1.99949 0.0191254 0)
(2.00056 0.0190176 0)
(2.00155 0.0187145 -1.44497e-22)
(2.00245 0.0182418 2.99274e-22)
(2.00323 0.0176266 1.39408e-22)
(2.0039 0.0168958 2.78074e-24)
(2.00447 0.0160746 -2.4922e-22)
(2.00493 0.0151857 -3.51812e-22)
(2.00529 0.0142489 1.38927e-21)
(2.00557 0.0132814 -9.08101e-22)
(2.00578 0.0122969 4.2491e-22)
(2.00592 0.0113086 1.27436e-21)
(2.00601 0.0103214 -1.45021e-21)
(2.00605 0.00934549 -2.00342e-22)
(2.00606 0.00838161 0)
(2.00605 0.00743496 -9.35119e-23)
(2.00602 0.00650613 9.35588e-23)
(2.00598 0.00559517 0)
(2.00593 0.00470147 8.94292e-23)
(2.00589 0.00382328 -8.94639e-23)
(2.00585 0.00295875 0)
(2.00582 0.00210499 0)
(2.0058 0.00125954 0)
(2.00578 0.000418653 0)
(2.00386 -0.00035293 0)
(2.0038 -0.0010534 0)
(2.00369 -0.0017437 0)
(2.00352 -0.00241755 0)
(2.0033 -0.00306746 0)
(2.00302 -0.00368608 0)
(2.00267 -0.00426499 -1.92193e-22)
(2.00227 -0.00479538 -2.2275e-24)
(2.0018 -0.00526753 -1.9942e-22)
(2.00126 -0.00567076 1.94153e-22)
(2.00065 -0.00599357 -2.05757e-22)
(1.99998 -0.00622339 4.05552e-22)
(1.99924 -0.00634651 -4.1906e-22)
(1.99843 -0.00634925 -7.22176e-24)
(1.99756 -0.00621656 3.86846e-21)
(1.99665 -0.00593212 -8.83526e-22)
(1.99569 -0.00548357 -1.79899e-21)
(1.9947 -0.00485828 -2.37741e-22)
(1.99371 -0.00404317 -1.39316e-23)
(1.99274 -0.00303268 2.82079e-21)
(1.99181 -0.00182008 -1.50839e-22)
(1.99095 -0.000409214 -4.81953e-22)
(1.99021 0.00118223 7.27909e-22)
(1.9896 0.00293926 2.46675e-22)
(1.98918 0.00483354 0)
(1.98896 0.00682701 2.45916e-22)
(1.98897 0.00887313 -2.36392e-22)
(1.98923 0.0109194 4.68308e-22)
(1.98974 0.0129082 -6.95518e-22)
(1.99048 0.0147844 6.6824e-22)
(1.99144 0.0164898 -2.22369e-22)
(1.99259 0.0179745 4.15203e-22)
(1.99388 0.0192023 -2.13152e-22)
(1.99527 0.0201479 5.76301e-22)
(1.9967 0.0207997 -1.77684e-23)
(1.99813 0.0211595 -5.38551e-22)
(1.99951 0.0212411 -3.26368e-22)
(2.00081 0.0210681 3.26181e-22)
(2.00199 0.0206707 0)
(2.00305 0.0200828 1.43836e-22)
(2.00396 0.0193388 -1.33921e-22)
(2.00474 0.0184719 -1.23785e-22)
(2.00539 0.0175123 7.17653e-24)
(2.0059 0.016487 0)
(2.00631 0.0154183 8.51184e-22)
(2.00661 0.0143264 -1.69498e-21)
(2.00682 0.0132257 -6.11496e-22)
(2.00696 0.012129 -2.04901e-22)
(2.00703 0.0110416 9.63421e-23)
(2.00706 0.00997463 -6.56391e-22)
(2.00706 0.00892707 2.79672e-22)
(2.00702 0.0079042 -9.18184e-23)
(2.00697 0.00690534 0)
(2.00691 0.00593005 0)
(2.00685 0.00497686 0)
(2.00679 0.00404312 -8.52532e-23)
(2.00674 0.00312639 6.63886e-25)
(2.00669 0.00222293 8.46668e-23)
(2.00666 0.00132953 0)
(2.00665 0.00044173 0)
(2.00461 -0.000401003 -1.81971e-22)
(2.00454 -0.0011974 1.82509e-22)
(2.00442 -0.00198378 0)
(2.00423 -0.00275377 -1.8484e-22)
(2.00398 -0.00349991 1.84791e-22)
(2.00366 -0.00421472 0)
(2.00327 -0.00488951 1.90106e-22)
(2.00281 -0.00551499 2.44209e-24)
(2.00228 -0.00608081 -3.87799e-22)
(2.00166 -0.00657538 -2.0142e-22)
(2.00097 -0.00698599 1.95011e-22)
(2.00019 -0.0072985 2.01769e-22)
(1.99933 -0.00749718 0)
(1.99839 -0.00756559 0)
(1.99737 -0.007486 -4.22975e-22)
(1.99629 -0.00723824 -1.32583e-21)
(1.99515 -0.00680528 1.786e-21)
(1.99397 -0.00617143 -1.38595e-21)
(1.99277 -0.00531788 -1.693e-23)
(1.99158 -0.00423371 1.94164e-21)
(1.99043 -0.00290948 6.70681e-21)
(1.98937 -0.00134267 -9.88445e-22)
(1.98843 0.000446826 7.50212e-22)
(1.98766 0.00244464 2.52373e-22)
(1.9871 0.00461853 0)
(1.98679 0.00692459 -2.46191e-22)
(1.98677 0.00930673 0)
(1.98705 0.0117004 2.41941e-22)
(1.98765 0.0140332 -5.34946e-24)
(1.98855 0.0162356 -9.37265e-22)
(1.98973 0.0182334 1.35709e-21)
(1.99114 0.0199633 -1.73906e-23)
(1.99272 0.0213794 -4.23701e-22)
(1.99443 0.0224512 3.0555e-24)
(1.99618 0.0231661 -1.76215e-22)
(1.99792 0.0235291 5.405e-22)
(1.99959 0.0235614 0)
(2.00114 0.023296 0)
(2.00255 0.0227738 -2.88225e-22)
(2.00378 0.0220393 1.60816e-23)
(2.00484 0.0211362 5.36012e-22)
(2.00573 0.0201055 7.85781e-24)
(2.00645 0.0189836 8.40182e-24)
(2.00702 0.0178017 8.86199e-22)
(2.00745 0.0165846 -5.14311e-21)
(2.00777 0.0153559 2.10002e-21)
(2.00798 0.0141286 4.08353e-22)
(2.0081 0.0129168 0)
(2.00816 0.0117258 0)
(2.00817 0.0105656 3.71909e-22)
(2.00813 0.00943416 8.78346e-23)
(2.00807 0.00833622 -8.78779e-23)
(2.00799 0.0072697 0)
(2.00791 0.00623331 -8.34831e-23)
(2.00782 0.00522453 8.35221e-23)
(2.00774 0.00423976 0)
(2.00767 0.00327563 0)
(2.00762 0.00232752 8.07956e-23)
(2.00758 0.0013914 -8.08332e-23)
(2.00755 0.000462101 0)
(2.00546 -0.000452908 0)
(2.00538 -0.00135297 0)
(2.00524 -0.00224339 1.80813e-22)
(2.00504 -0.003118 -1.8075e-22)
(2.00476 -0.00396945 0)
(2.00441 -0.00479025 0)
(2.00398 -0.00557173 -1.87673e-22)
(2.00346 -0.00630422 -2.6616e-24)
(2.00286 -0.00697685 3.83615e-22)
(2.00217 -0.00757727 -1.93321e-22)
(2.00138 -0.00809155 -4.00885e-22)
(2.00049 -0.00850403 1.93671e-22)
(1.99951 -0.00879686 4.09233e-22)
(1.99842 -0.00895065 -4.27471e-22)
(1.99724 -0.0089444 -2.60507e-21)
(1.99597 -0.00875368 4.3765e-22)
(1.99462 -0.00835591 -9.17405e-22)
(1.99322 -0.00773104 2.08857e-21)
(1.99178 -0.00685321 -9.40354e-22)
(1.99033 -0.00570445 -1.92576e-21)
(1.98893 -0.00427126 -7.99866e-21)
(1.9876 -0.00254165 1.61962e-20)
(1.98642 -0.000533387 -5.05192e-22)