/*--------------------------------*- C++ -*----------------------------------*\
  =========                 |
  \\      /  F ield         | OpenFOAM: The Open Source CFD Toolbox
   \\    /   O peration     | Website:  https://openfoam.org
    \\  /    A nd           | Version:  12
     \\/     M anipulation  |
\*---------------------------------------------------------------------------*/
FoamFile
{
    format      ascii;
    class       volScalarField;
    location    "480";
    object      k;
}
// * * * * * * * * * * * * * * * * * * * * * * * * * * * * * * * * * * * * * //

dimensions      [0 2 -2 0 0 0 0];

internalField   nonuniform List<scalar> 
16227
(
0.00914646
0.00914648
0.00914647
0.00914651
0.0091465
0.00914654
0.00914653
0.00914651
0.00914651
0.00914653
0.00914657
0.00914659
0.00914665
0.00914665
0.00914665
0.00914665
0.00914665
0.00914665
0.00914665
0.00914665
0.00914665
0.00914665
0.00914665
0.00914665
0.00914665
0.00914665
0.00914665
0.00914666
0.00914667
0.00914664
0.00914665
0.00914664
0.00914665
0.00914665
0.00914665
0.00914665
0.00914665
0.00914665
0.00914665
0.00914665
0.00914665
0.00914665
0.00914665
0.00914665
0.00914665
0.00914665
0.00914665
0.00914663
0.00914662
0.00914662
0.00914662
0.00914661
0.00914654
0.00914654
0.00914649
0.00914649
0.00914651
0.00914649
0.00914647
0.00914646
0.00848122
0.00848124
0.00848123
0.00848126
0.00848127
0.0084813
0.00848129
0.00848127
0.00848128
0.00848129
0.00848134
0.00848136
0.00848151
0.00848157
0.00848158
0.00848158
0.00848158
0.00848158
0.00848158
0.00848158
0.00848159
0.00848161
0.00848161
0.00848161
0.00848161
0.00848161
0.00848161
0.0084816
0.00848158
0.00848153
0.00848158
0.0084816
0.0084816
0.00848161
0.0084816
0.00848159
0.00848158
0.00848158
0.00848158
0.00848158
0.00848158
0.00848158
0.00848158
0.00848157
0.00848157
0.00848156
0.00848156
0.00848156
0.00848156
0.00848155
0.00848152
0.00848146
0.00848135
0.00848133
0.0084813
0.00848128
0.00848131
0.00848123
0.00848125
0.00848122
0.00790074
0.00790076
0.00790077
0.00790078
0.00790077
0.00790087
0.00790082
0.00790081
0.00790082
0.00790083
0.00790087
0.00790089
0.00790114
0.0079012
0.00790121
0.00790123
0.00790122
0.00790122
0.00790124
0.00790119
0.00790122
0.00790123
0.00790123
0.00790123
0.00790123
0.00790123
0.00790122
0.00790123
0.00790121
0.00790114
0.0079012
0.00790122
0.00790122
0.00790122
0.00790122
0.00790122
0.00790123
0.00790122
0.00790121
0.00790121
0.00790121
0.00790122
0.00790121
0.0079012
0.0079012
0.00790121
0.0079012
0.0079012
0.00790119
0.00790117
0.00790113
0.00790093
0.00790086
0.00790085
0.00790083
0.00790082
0.00790086
0.00790076
0.00790077
0.00790075
0.00739023
0.00739025
0.00739025
0.00739026
0.00739027
0.00739034
0.00739034
0.00739031
0.00739031
0.00739031
0.00739036
0.00739042
0.00739068
0.00739076
0.00739077
0.00739079
0.0073908
0.00739081
0.00739075
0.00739062
0.00739073
0.00739077
0.00739076
0.00739076
0.00739077
0.00739076
0.00739075
0.00739074
0.00739072
0.00739063
0.0073907
0.00739072
0.00739072
0.00739072
0.00739072
0.00739073
0.00739073
0.00739073
0.00739074
0.00739074
0.00739074
0.00739074
0.00739074
0.00739075
0.00739075
0.00739074
0.00739075
0.00739075
0.00739075
0.00739073
0.00739061
0.00739041
0.00739032
0.00739034
0.00739034
0.00739036
0.00739033
0.00739026
0.00739026
0.00739024
0.00693809
0.0069381
0.00693811
0.00693813
0.00693813
0.00693819
0.00693822
0.00693816
0.00693818
0.00693818
0.00693822
0.00693828
0.00693853
0.00693866
0.00693868
0.00693868
0.00693869
0.00693866
0.00693845
0.00693837
0.00693856
0.00693863
0.00693862
0.0069386
0.00693859
0.00693857
0.00693856
0.00693855
0.00693851
0.00693841
0.00693849
0.00693852
0.00693852
0.00693851
0.00693851
0.00693852
0.00693853
0.00693854
0.00693855
0.00693856
0.00693857
0.00693859
0.00693859
0.00693859
0.0069386
0.00693862
0.00693862
0.00693863
0.00693863
0.00693855
0.00693831
0.00693821
0.00693813
0.00693817
0.00693819
0.00693824
0.00693818
0.00693811
0.00693811
0.00693809
0.00653511
0.00653513
0.00653513
0.00653515
0.00653515
0.0065352
0.00653524
0.0065352
0.00653518
0.00653518
0.00653519
0.00653523
0.00653535
0.00653564
0.0065357
0.00653572
0.00653572
0.00653561
0.00653537
0.00653532
0.00653554
0.00653559
0.00653556
0.00653553
0.00653551
0.00653549
0.00653547
0.00653544
0.00653539
0.00653528
0.00653536
0.00653538
0.00653538
0.00653538
0.00653539
0.0065354
0.00653542
0.00653543
0.00653545
0.00653547
0.00653548
0.0065355
0.00653552
0.00653555
0.00653556
0.00653558
0.0065356
0.00653561
0.00653562
0.00653549
0.00653525
0.00653515
0.00653512
0.00653517
0.00653522
0.00653522
0.00653517
0.00653511
0.00653511
0.0065351
0.0061739
0.00617392
0.00617391
0.00617393
0.00617393
0.00617397
0.00617402
0.00617401
0.00617397
0.00617397
0.00617396
0.00617396
0.00617407
0.00617433
0.00617447
0.00617449
0.00617445
0.00617416
0.00617403
0.00617402
0.00617423
0.00617426
0.00617422
0.00617418
0.00617414
0.0061741
0.00617406
0.00617402
0.00617397
0.00617384
0.00617392
0.00617393
0.00617392
0.00617393
0.00617394
0.00617396
0.00617398
0.00617401
0.00617404
0.00617408
0.0061741
0.00617414
0.00617418
0.0061742
0.00617425
0.00617427
0.00617429
0.00617432
0.00617427
0.00617402
0.0061739
0.00617383
0.00617385
0.00617393
0.00617395
0.00617395
0.00617391
0.00617386
0.00617387
0.00617385
0.00584846
0.00584846
0.00584846
0.00584848
0.00584847
0.00584851
0.00584856
0.00584856
0.00584852
0.00584849
0.00584847
0.00584844
0.00584849
0.00584862
0.00584892
0.005849
0.00584893
0.00584858
0.00584847
0.00584844
0.00584865
0.00584867
0.00584861
0.00584854
0.00584847
0.00584842
0.00584836
0.0058483
0.00584822
0.00584808
0.00584815
0.00584816
0.00584816
0.00584816
0.00584818
0.0058482
0.00584823
0.00584827
0.00584832
0.00584837
0.00584843
0.00584847
0.00584852
0.00584858
0.00584863
0.00584866
0.00584871
0.00584874
0.00584863
0.0058484
0.0058483
0.00584828
0.00584835
0.0058484
0.00584842
0.00584842
0.00584839
0.00584835
0.00584836
0.00584835
0.00555384
0.00555384
0.00555385
0.00555386
0.00555386
0.00555389
0.00555392
0.00555392
0.00555391
0.00555387
0.00555383
0.00555378
0.0055538
0.0055539
0.00555424
0.00555433
0.00555417
0.00555384
0.00555372
0.00555368
0.00555387
0.00555386
0.00555377
0.00555368
0.00555359
0.00555351
0.00555342
0.00555334
0.00555325
0.00555308
0.00555314
0.00555315
0.00555314
0.00555315
0.00555317
0.0055532
0.00555324
0.0055533
0.00555336
0.00555342
0.0055535
0.00555358
0.00555365
0.00555372
0.00555379
0.00555386
0.00555391
0.00555388
0.00555365
0.00555356
0.00555351
0.00555358
0.00555362
0.00555368
0.0055537
0.00555372
0.0055537
0.00555366
0.00555367
0.00555367
0.00528599
0.005286
0.00528599
0.00528601
0.005286
0.00528603
0.00528606
0.00528605
0.00528604
0.00528603
0.00528597
0.00528589
0.00528591
0.005286
0.00528627
0.00528635
0.00528603
0.00528582
0.00528572
0.00528567
0.00528583
0.00528579
0.00528567
0.00528555
0.00528543
0.00528531
0.0052852
0.00528509
0.00528497
0.00528479
0.00528484
0.00528483
0.00528481
0.00528482
0.00528485
0.00528489
0.00528495
0.00528502
0.00528511
0.00528519
0.00528529
0.00528538
0.00528549
0.00528559
0.00528568
0.00528577
0.00528584
0.00528579
0.00528556
0.0052855
0.00528553
0.00528558
0.00528564
0.00528571
0.00528574
0.00528577
0.00528575
0.00528573
0.00528574
0.00528574
0.00504151
0.00504152
0.00504152
0.00504152
0.00504152
0.00504154
0.00504157
0.00504155
0.00504154
0.00504152
0.00504148
0.00504138
0.00504133
0.00504137
0.00504148
0.00504168
0.00504137
0.00504119
0.00504108
0.005041
0.00504107
0.00504104
0.00504091
0.00504074
0.00504058
0.00504043
0.00504028
0.00504014
0.00504
0.00503979
0.00503981
0.0050398
0.00503978
0.00503979
0.00503982
0.00503988
0.00503996
0.00504005
0.00504015
0.00504027
0.00504039
0.00504052
0.00504065
0.00504077
0.00504089
0.005041
0.00504101
0.00504093
0.00504083
0.00504081
0.00504086
0.00504093
0.005041
0.00504109
0.00504113
0.00504116
0.00504116
0.00504114
0.00504116
0.00504116
0.00481754
0.00481755
0.00481755
0.00481755
0.00481755
0.00481757
0.00481758
0.00481758
0.00481755
0.00481752
0.00481748
0.0048174
0.00481732
0.0048173
0.00481736
0.00481751
0.00481727
0.00481708
0.00481692
0.0048168
0.0048167
0.00481675
0.00481661
0.00481641
0.0048162
0.00481601
0.00481582
0.00481565
0.00481547
0.00481524
0.00481525
0.00481522
0.0048152
0.0048152
0.00481524
0.00481531
0.0048154
0.00481552
0.00481565
0.0048158
0.00481596
0.00481611
0.00481627
0.00481644
0.00481658
0.00481667
0.00481661
0.00481662
0.00481661
0.00481662
0.0048167
0.00481679
0.00481688
0.00481697
0.00481702
0.00481707
0.00481707
0.00481706
0.00481708
0.00481708
0.00461168
0.00461168
0.00461168
0.00461169
0.00461169
0.0046117
0.00461171
0.0046117
0.00461167
0.00461164
0.0046116
0.00461151
0.00461142
0.00461133
0.00461129
0.00461127
0.00461121
0.00461107
0.00461088
0.0046107
0.00461053
0.00461057
0.0046104
0.00461015
0.0046099
0.00460965
0.00460942
0.0046092
0.00460899
0.00460873
0.00460871
0.00460866
0.00460864
0.00460865
0.0046087
0.00460879
0.0046089
0.00460904
0.00460921
0.00460938
0.00460958
0.00460978
0.00460997
0.00461016
0.00461032
0.00461041
0.00461038
0.00461047
0.00461047
0.00461052
0.00461062
0.00461073
0.00461084
0.00461093
0.004611
0.00461105
0.00461107
0.00461107
0.00461109
0.0046111
0.00442187
0.00442188
0.00442187
0.00442187
0.00442187
0.00442188
0.00442189
0.00442188
0.00442185
0.00442181
0.00442175
0.00442166
0.00442157
0.00442147
0.00442135
0.0044213
0.00442126
0.0044211
0.00442088
0.00442066
0.00442044
0.00442043
0.00442021
0.00441991
0.0044196
0.0044193
0.00441901
0.00441875
0.00441849
0.0044182
0.00441815
0.00441809
0.00441806
0.00441807
0.00441813
0.00441824
0.00441838
0.00441855
0.00441875
0.00441898
0.0044192
0.00441944
0.00441967
0.00441989
0.00442002
0.00442009
0.0044202
0.00442031
0.00442037
0.00442046
0.00442058
0.00442071
0.00442083
0.00442093
0.00442102
0.00442109
0.00442111
0.00442112
0.00442115
0.00442115
0.00424634
0.00424635
0.00424635
0.00424634
0.00424634
0.00424635
0.00424636
0.00424634
0.00424632
0.00424627
0.00424621
0.00424612
0.00424602
0.0042459
0.00424578
0.00424569
0.00424563
0.00424543
0.00424517
0.00424491
0.00424464
0.00424457
0.00424429
0.00424393
0.00424356
0.0042432
0.00424285
0.00424253
0.00424222
0.00424189
0.00424182
0.00424174
0.0042417
0.00424172
0.00424179
0.00424192
0.00424209
0.00424231
0.00424254
0.00424281
0.00424308
0.00424336
0.00424363
0.00424384
0.00424392
0.0042441
0.00424427
0.00424443
0.00424454
0.00424466
0.00424482
0.00424497
0.0042451
0.00424523
0.00424532
0.0042454
0.00424543
0.00424546
0.00424549
0.00424549
0.00408359
0.00408359
0.00408359
0.0040836
0.00408359
0.00408361
0.00408361
0.00408359
0.00408356
0.00408352
0.00408345
0.00408335
0.00408324
0.00408311
0.00408298
0.00408287
0.00408277
0.00408255
0.00408225
0.00408194
0.00408162
0.00408143
0.00408113
0.00408071
0.00408026
0.00407983
0.00407942
0.00407904
0.00407867
0.0040783
0.00407819
0.00407809
0.00407805
0.00407807
0.00407816
0.00407832
0.00407852
0.00407878
0.00407906
0.00407937
0.00407969
0.00408002
0.00408033
0.00408055
0.00408068
0.00408091
0.00408113
0.00408129
0.00408145
0.00408163
0.00408182
0.00408199
0.00408214
0.00408229
0.0040824
0.00408248
0.00408252
0.00408256
0.00408259
0.0040826
0.00393231
0.00393231
0.00393231
0.00393231
0.00393231
0.00393232
0.00393233
0.00393231
0.00393228
0.00393224
0.00393217
0.00393206
0.00393195
0.0039318
0.00393165
0.00393152
0.0039314
0.00393113
0.0039308
0.00393042
0.00393003
0.00392965
0.00392939
0.00392893
0.00392842
0.0039279
0.00392741
0.00392696
0.00392653
0.00392611
0.00392596
0.00392584
0.00392579
0.00392582
0.00392593
0.00392611
0.00392637
0.00392666
0.003927
0.00392736
0.00392775
0.00392811
0.0039284
0.00392863
0.00392889
0.00392918
0.00392945
0.00392965
0.00392984
0.00393007
0.00393029
0.00393048
0.00393065
0.00393081
0.00393093
0.00393102
0.00393108
0.00393112
0.00393116
0.00393117
0.00379134
0.00379134
0.00379135
0.00379135
0.00379135
0.00379137
0.00379137
0.00379135
0.00379133
0.00379128
0.00379121
0.00379111
0.00379098
0.00379084
0.00379066
0.00379051
0.00379036
0.00379008
0.00378969
0.00378926
0.00378879
0.00378831
0.003788
0.00378748
0.00378688
0.00378627
0.0037857
0.00378516
0.00378466
0.00378418
0.003784
0.00378385
0.00378378
0.00378382
0.00378396
0.00378418
0.00378448
0.00378483
0.00378524
0.00378566
0.00378609
0.00378648
0.00378672
0.00378707
0.00378743
0.00378779
0.00378809
0.00378833
0.00378858
0.00378884
0.00378908
0.00378929
0.00378948
0.00378966
0.00378979
0.00378989
0.00378996
0.00379001
0.00379005
0.00379006
0.0036597
0.00365971
0.00365971
0.00365972
0.00365972
0.00365974
0.00365975
0.00365973
0.00365971
0.00365967
0.0036596
0.0036595
0.00365937
0.00365921
0.00365903
0.00365885
0.00365867
0.00365835
0.00365794
0.00365745
0.00365692
0.00365637
0.00365592
0.00365535
0.00365466
0.00365395
0.00365327
0.00365264
0.00365206
0.00365152
0.00365128
0.0036511
0.00365103
0.00365109
0.00365125
0.00365153
0.00365188
0.0036523
0.00365276
0.00365324
0.00365373
0.00365416
0.00365447
0.00365489
0.00365532
0.00365571
0.00365603
0.00365633
0.00365664
0.00365694
0.0036572
0.00365744
0.00365765
0.00365784
0.00365798
0.0036581
0.00365817
0.00365823
0.00365827
0.00365829
0.00353652
0.00353653
0.00353653
0.00353654
0.00353655
0.00353657
0.00353659
0.00353657
0.00353656
0.00353652
0.00353646
0.00353635
0.00353622
0.00353607
0.00353587
0.00353567
0.00353545
0.00353512
0.00353467
0.00353414
0.00353353
0.00353288
0.00353222
0.00353165
0.0035309
0.00353008
0.00352929
0.00352855
0.00352788
0.00352726
0.00352696
0.00352676
0.00352668
0.00352675
0.00352695
0.00352728
0.0035277
0.00352818
0.00352869
0.00352921
0.00352973
0.0035302
0.00353067
0.00353118
0.00353168
0.0035321
0.00353246
0.00353281
0.00353317
0.0035335
0.00353379
0.00353405
0.00353428
0.00353448
0.00353464
0.00353476
0.00353485
0.0035349
0.00353496
0.00353497
0.00342102
0.00342103
0.00342104
0.00342105
0.00342106
0.00342109
0.00342111
0.00342111
0.0034211
0.00342106
0.00342101
0.00342091
0.00342079
0.00342063
0.00342042
0.00342017
0.00341992
0.0034196
0.00341913
0.00341856
0.00341789
0.00341714
0.00341636
0.00341572
0.00341485
0.00341391
0.00341299
0.00341213
0.00341134
0.00341063
0.00341027
0.00341003
0.00340995
0.00341004
0.00341029
0.00341068
0.00341117
0.00341171
0.00341228
0.00341288
0.00341341
0.00341399
0.00341459
0.00341518
0.00341572
0.00341616
0.00341658
0.00341701
0.00341741
0.00341776
0.00341808
0.00341836
0.00341861
0.00341882
0.00341899
0.00341912
0.00341921
0.00341928
0.00341933
0.00341935
0.00331252
0.00331253
0.00331255
0.00331256
0.00331258
0.00331261
0.00331264
0.00331265
0.00331265
0.00331263
0.00331258
0.0033125
0.00331238
0.00331222
0.00331201
0.00331175
0.00331147
0.00331115
0.00331066
0.00331004
0.00330931
0.0033085
0.00330762
0.00330683
0.00330587
0.0033048
0.00330373
0.00330272
0.00330181
0.003301
0.00330055
0.00330026
0.00330018
0.00330029
0.00330059
0.00330106
0.0033016
0.00330221
0.00330288
0.00330357
0.00330419
0.00330487
0.00330556
0.00330621
0.00330679
0.00330729
0.00330776
0.00330823
0.00330867
0.00330905
0.00330939
0.00330969
0.00330995
0.00331017
0.00331035
0.0033105
0.0033106
0.00331067
0.00331072
0.00331075
0.00321043
0.00321044
0.00321045
0.00321047
0.0032105
0.00321054
0.00321058
0.0032106
0.00321061
0.0032106
0.00321057
0.0032105
0.0032104
0.00321025
0.00321005
0.00320979
0.0032095
0.00320915
0.00320866
0.00320801
0.00320723
0.00320634
0.00320538
0.0032044
0.00320348
0.00320226
0.00320103
0.00319986
0.00319879
0.00319783
0.00319729
0.00319696
0.00319685
0.00319699
0.00319735
0.00319789
0.00319842
0.00319912
0.00319983
0.00320061
0.0032014
0.00320219
0.00320296
0.00320365
0.00320426
0.00320483
0.00320538
0.00320589
0.00320636
0.00320676
0.00320713
0.00320744
0.00320771
0.00320795
0.00320814
0.00320829
0.0032084
0.00320847
0.00320853
0.00320855
0.00311419
0.0031142
0.00311422
0.00311425
0.00311428
0.00311433
0.00311438
0.00311441
0.00311444
0.00311445
0.00311444
0.00311438
0.0031143
0.00311417
0.00311399
0.00311373
0.00311341
0.00311304
0.00311257
0.00311193
0.00311113
0.00311019
0.00310917
0.0031087
0.00315374
0.0031525
0.00315116
0.00314988
0.0031487
0.00314765
0.00314703
0.00314666
0.00314654
0.00314669
0.00314708
0.00314765
0.00310151
0.00310191
0.00310274
0.00310364
0.00310455
0.00310543
0.00310626
0.00310697
0.00310764
0.00310829
0.0031089
0.00310945
0.00310994
0.00311037
0.00311075
0.00311108
0.00311136
0.00311161
0.00311181
0.00311196
0.00311208
0.00311215
0.00311221
0.00311224
0.00302333
0.00302335
0.00302337
0.00302341
0.00302345
0.00302351
0.00302357
0.00302362
0.00302366
0.00302369
0.0030237
0.00302367
0.00302361
0.00302351
0.00302336
0.00302312
0.0030228
0.00302242
0.00302195
0.00302137
0.00302058
0.00301964
0.00301917
0.00306195
0.00305886
0.00305768
0.00305615
0.00305463
0.00305322
0.00305195
0.00305116
0.00305065
0.00305045
0.00305059
0.00305102
0.0030516
0.00305416
0.00301058
0.0030112
0.00301219
0.00301318
0.00301413
0.003015
0.00301577
0.0030165
0.00301721
0.00301785
0.00301843
0.00301894
0.0030194
0.00301979
0.00302013
0.00302042
0.00302067
0.00302088
0.00302104
0.00302116
0.00302124
0.0030213
0.00302133
0.00293743
0.00293744
0.00293747
0.00293751
0.00293757
0.00293764
0.00293771
0.00293778
0.00293784
0.00293789
0.00293793
0.00293793
0.00293791
0.00293784
0.00293772
0.00293752
0.00293724
0.00293688
0.00293645
0.0029359
0.00293517
0.00293429
0.00293436
0.00297281
0.00296989
0.0029902
0.00298855
0.00298684
0.00298524
0.00298379
0.00298286
0.00298222
0.00298193
0.00298201
0.00298244
0.00296136
0.00296354
0.00292432
0.00292476
0.00292579
0.00292685
0.00292784
0.00292874
0.00292958
0.00293039
0.00293114
0.00293181
0.00293241
0.00293294
0.00293341
0.00293381
0.00293416
0.00293446
0.00293472
0.00293493
0.00293509
0.00293521
0.00293529
0.00293536
0.00293539
0.00285608
0.0028561
0.00285614
0.00285619
0.00285625
0.00285633
0.00285642
0.00285651
0.0028566
0.00285667
0.00285674
0.00285678
0.00285679
0.00285677
0.0028567
0.00285655
0.00285633
0.00285603
0.00285563
0.00285515
0.00285454
0.00285387
0.00285456
0.00288906
0.00288639
0.00290475
0.0029029
0.00290096
0.00289921
0.0028977
0.00289662
0.0028958
0.00289528
0.0028951
0.00289513
0.00287648
0.00287794
0.00284286
0.00284308
0.00284411
0.00284518
0.00284619
0.00284715
0.00284807
0.00284892
0.0028497
0.0028504
0.00285101
0.00285156
0.00285203
0.00285245
0.0028528
0.0028531
0.00285336
0.00285357
0.00285374
0.00285386
0.00285394
0.002854
0.00285403
0.00277895
0.00277897
0.00277902
0.00277907
0.00277915
0.00277924
0.00277935
0.00277946
0.00277957
0.00277968
0.00277978
0.00277985
0.00277991
0.00277995
0.00277993
0.00277986
0.00277972
0.00277951
0.0027792
0.00277883
0.0027784
0.0027781
0.00277954
0.00281052
0.00280834
0.00282516
0.00282308
0.00282135
0.0028199
0.00281865
0.00281754
0.0028163
0.00281509
0.00281406
0.00281337
0.00279614
0.0027973
0.00276588
0.00276583
0.00276679
0.00276786
0.00276891
0.00276993
0.00277089
0.00277177
0.00277256
0.00277327
0.00277389
0.00277444
0.00277492
0.00277534
0.00277569
0.00277599
0.00277625
0.00277646
0.00277663
0.00277675
0.00277683
0.00277689
0.00277692
0.00270572
0.00270575
0.0027058
0.00270586
0.00270595
0.00270606
0.00270618
0.00270631
0.00270645
0.00270659
0.00270672
0.00270685
0.00270696
0.00270705
0.00270711
0.00270712
0.00270709
0.002707
0.00270686
0.00270668
0.00270651
0.00270676
0.00270907
0.00273703
0.00273615
0.00275208
0.00274989
0.00275021
0.00275091
0.00275115
0.00274984
0.00274688
0.00274321
0.00273992
0.00273765
0.00272033
0.00272166
0.00269307
0.00269271
0.00269357
0.00269463
0.00269571
0.00269676
0.00269772
0.00269861
0.0026994
0.00270011
0.00270074
0.00270129
0.00270176
0.00270218
0.00270253
0.00270283
0.00270308
0.00270329
0.00270345
0.00270357
0.00270365
0.00270371
0.00270374
0.00263611
0.00263614
0.00263619
0.00263626
0.00263636
0.00263649
0.00263663
0.00263678
0.00263695
0.00263712
0.0026373
0.00263746
0.00263763
0.00263779
0.00263793
0.00263805
0.00263814
0.00263822
0.00263829
0.00263841
0.00263867
0.00263971
0.00264297
0.00266854
0.00267055
0.00268596
0.00268633
0.00269426
0.00270499
0.00271246
0.00270957
0.00269799
0.002685
0.00267543
0.00266937
0.00264922
0.00265097
0.00262426
0.00262354
0.00262431
0.00262528
0.00262633
0.00262735
0.0026283
0.00262917
0.00262995
0.00263065
0.00263127
0.00263181
0.00263228
0.00263268
0.00263302
0.00263331
0.00263356
0.00263376
0.00263392
0.00263403
0.00263411
0.00263417
0.0026342
0.00256985
0.00256988
0.00256994
0.00257002
0.00257013
0.00257027
0.00257043
0.00257061
0.0025708
0.00257101
0.00257123
0.00257144
0.00257167
0.0025719
0.00257213
0.00257236
0.0025726
0.00257287
0.00257321
0.00257373
0.00257459
0.00257675
0.00258102
0.00260503
0.00261236
0.00262835
0.00263966
0.00267657
0.00273785
0.00278925
0.00277261
0.00270915
0.00265582
0.00262595
0.00261082
0.00258418
0.00258517
0.00255933
0.00255809
0.00255874
0.00255955
0.00256051
0.00256146
0.00256236
0.0025632
0.00256395
0.00256463
0.00256522
0.00256575
0.0025662
0.00256659
0.00256692
0.0025672
0.00256744
0.00256763
0.00256778
0.00256788
0.00256796
0.00256802
0.00256805
0.00250671
0.00250675
0.00250681
0.0025069
0.00250702
0.00250718
0.00250736
0.00250756
0.00250778
0.00250802
0.00250828
0.00250854
0.00250883
0.00250914
0.00250946
0.00250981
0.00251021
0.0025107
0.00251136
0.00251235
0.00251399
0.00251755
0.00252297
0.00254671
0.00256193
0.00258219
0.00263051
0.00277362
0.00293968
0.00305949
0.00302178
0.00287056
0.00269868
0.0026006
0.00256434
0.00252711
0.0025241
0.00249839
0.00249617
0.00249662
0.00249717
0.00249799
0.00249884
0.00249967
0.00250046
0.00250117
0.00250181
0.00250238
0.00250287
0.0025033
0.00250367
0.00250398
0.00250425
0.00250447
0.00250465
0.00250479
0.00250489
0.00250497
0.00250502
0.00250505
0.00244649
0.00244653
0.00244659
0.00244669
0.00244682
0.00244699
0.00244719
0.00244741
0.00244766
0.00244793
0.00244823
0.00244855
0.00244889
0.00244927
0.00244969
0.00245016
0.00245073
0.00245144
0.00245244
0.00245396
0.00245651
0.00246163
0.00246819
0.00249352
0.00251929
0.002553
0.00270319
0.0029874
0.00339082
0.00422465
0.00398811
0.00326383
0.00284387
0.00260719
0.00252923
0.00247974
0.00246776
0.00244138
0.00243753
0.00243767
0.00243793
0.00243855
0.00243927
0.00244001
0.00244072
0.00244137
0.00244196
0.00244249
0.00244295
0.00244335
0.0024437
0.00244399
0.00244424
0.00244444
0.00244461
0.00244474
0.00244484
0.00244491
0.00244495
0.00244499
0.00238897
0.00238901
0.00238908
0.00238919
0.00238933
0.00238952
0.00238973
0.00238997
0.00239025
0.00239055
0.00239088
0.00239125
0.00239165
0.0023921
0.00239261
0.0023932
0.00239392
0.00239486
0.00239619
0.00239826
0.00240176
0.0024084
0.00241598
0.00244475
0.00248328
0.0025435
0.00286407
0.00335296
0.00496636
0.00495825
0.00304961
0.00262926
0.00249965
0.00244123
0.00241586
0.00238829
0.00238204
0.00238165
0.00238157
0.00238196
0.00238252
0.00238314
0.00238376
0.00238434
0.00238488
0.00238536
0.00238578
0.00238615
0.00238647
0.00238674
0.00238696
0.00238716
0.00238731
0.00238743
0.00238752
0.00238758
0.00238763
0.00238766
0.00233399
0.00233403
0.00233411
0.00233422
0.00233438
0.00233457
0.0023348
0.00233506
0.00233536
0.00233569
0.00233606
0.00233647
0.00233692
0.00233744
0.00233802
0.00233872
0.00233958
0.00234072
0.00234236
0.00234491
0.00234932
0.00235722
0.00236593
0.00239941
0.00245283
0.0025429
0.00305816
0.00374006
0.00758468
0.103166
0.00641761
0.00320236
0.00262782
0.00246895
0.00240956
0.00236852
0.00233917
0.00232968
0.00232842
0.00232797
0.00232809
0.00232846
0.00232894
0.00232945
0.00232996
0.00233042
0.00233085
0.00233122
0.00233155
0.00233184
0.00233208
0.00233228
0.00233245
0.00233259
0.0023327
0.00233277
0.00233283
0.00233287
0.0023329
0.00228138
0.00228143
0.00228151
0.00228163
0.00228179
0.00228199
0.00228223
0.00228251
0.00228283
0.00228319
0.00228359
0.00228404
0.00228454
0.0022851
0.00228576
0.00228654
0.00228752
0.00228881
0.00229069
0.00229363
0.00229882
0.00230768
0.00231837
0.00235717
0.00242715
0.00254371
0.00330315
0.00422472
0.00938167
0.169604
0.030411
0.0101841
0.00331614
0.00263728
0.00244369
0.00238425
0.00232597
0.00229378
0.00228032
0.00227773
0.00227688
0.0022767
0.00227687
0.00227721
0.00227761
0.00227802
0.00227841
0.00227877
0.00227909
0.00227938
0.00227962
0.00227983
0.00228
0.00228015
0.00228027
0.00228036
0.00228043
0.00228047
0.00228051
0.00228054
0.00223099
0.00223104
0.00223112
0.00223125
0.00223142
0.00223163
0.00223189
0.00223218
0.00223252
0.0022329
0.00223332
0.0022338
0.00223434
0.00223495
0.00223566
0.0022365
0.00223756
0.00223895
0.00224098
0.00224416
0.0022499
0.00225956
0.0022735
0.00231791
0.00240675
0.00255507
0.00351153
0.0048675
0.00745575
0.085891
0.114295
0.105201
0.0119644
0.00281496
0.0024402
0.00236501
0.00228835
0.00225167
0.00223373
0.00222937
0.00222807
0.00222761
0.00222758
0.00222776
0.00222804
0.00222835
0.00222866
0.00222896
0.00222923
0.00222946
0.00222967
0.00222984
0.00222998
0.00223011
0.0022302
0.00223028
0.00223033
0.00223037
0.00223039
0.00223042
0.00218268
0.00218274
0.00218282
0.00218296
0.00218313
0.00218335
0.00218362
0.00218393
0.00218428
0.00218468
0.00218512
0.00218562
0.00218619
0.00218683
0.00218757
0.00218844
0.00218952
0.00219094
0.00219304
0.00219636
0.00220243
0.0022129
0.00223133
0.00228188
0.00239119
0.00259355
0.00364668
0.00552017
0.00825249
0.0284844
0.0530293
0.0755797
0.0448358
0.00375984
0.002467
0.00234566
0.00225481
0.00221195
0.00218952
0.00218311
0.00218134
0.00218061
0.0021804
0.00218043
0.00218059
0.00218081
0.00218104
0.00218127
0.00218148
0.00218166
0.00218182
0.00218196
0.00218207
0.00218217
0.00218224
0.0021823
0.00218234
0.00218236
0.00218239
0.00218241
0.00213633
0.00213639
0.00213648
0.00213662
0.0021368
0.00213702
0.0021373
0.00213762
0.00213798
0.0021384
0.00213886
0.00213938
0.00213996
0.00214062
0.00214136
0.00214221
0.00214329
0.00214475
0.00214686
0.00215023
0.00215636
0.00216761
0.00219118
0.00224911
0.00238089
0.00264939
0.00384926
0.00666831
0.011483
0.0180311
0.0382457
0.0621423
0.0519867
0.00481014
0.00252202
0.00231784
0.00222317
0.00217348
0.0021472
0.00213873
0.00213649
0.00213553
0.00213516
0.00213507
0.00213513
0.00213525
0.00213541
0.00213556
0.00213571
0.00213585
0.00213597
0.00213606
0.00213614
0.00213621
0.00213626
0.0021363
0.00213633
0.00213634
0.00213636
0.00213638
0.00209183
0.00209188
0.00209198
0.00209212
0.0020923
0.00209253
0.00209282
0.00209314
0.00209352
0.00209394
0.00209442
0.00209495
0.00209553
0.00209615
0.00209689
0.00209778
0.00209888
0.00210035
0.00210242
0.00210573
0.00211171
0.00212356
0.00215199
0.00221857
0.0023791
0.002714
0.00502742
0.0239081
0.0806118
0.108535
0.0651664
0.070202
0.0445668
0.00502787
0.00258444
0.00228223
0.00219172
0.00213516
0.00210624
0.00209597
0.00209332
0.00209219
0.00209171
0.00209153
0.00209151
0.00209155
0.00209163
0.00209172
0.00209181
0.0020919
0.00209197
0.00209203
0.00209208
0.00209211
0.00209214
0.00209216
0.00209217
0.00209218
0.00209218
0.0020922
0.00204905
0.00204911
0.00204921
0.00204935
0.00204954
0.00204977
0.00205006
0.00205039
0.00205078
0.00205121
0.00205168
0.00205221
0.00205277
0.00205341
0.00205418
0.00205508
0.00205619
0.00205762
0.00205961
0.00206284
0.00206861
0.00208067
0.0021128
0.00218804
0.0023727
0.0031061
0.0333763
0.108123
0.106208
0.0788263
0.058995
0.0734526
0.0332495
0.00494852
0.00267143
0.00225464
0.00215935
0.00209656
0.00206634
0.00205476
0.00205179
0.00205056
0.00204998
0.0020497
0.00204961
0.00204958
0.0020496
0.00204963
0.00204966
0.0020497
0.00204972
0.00204974
0.00204976
0.00204977
0.00204977
0.00204977
0.00204977
0.00204976
0.00204976
0.00204978
0.00200791
0.00200798
0.00200807
0.00200821
0.0020084
0.00200865
0.00200894
0.00200927
0.00200966
0.00201008
0.00201053
0.00201105
0.00201164
0.00201232
0.00201309
0.002014
0.00201508
0.00201649
0.00201842
0.00202153
0.00202716
0.00203922
0.00207358
0.00215783
0.00243629
0.00651122
0.0773097
0.10645
0.0772202
0.0624495
0.0635457
0.0643057
0.0234987
0.0047761
0.00277159
0.00226157
0.00212662
0.00205774
0.00202732
0.00201505
0.00201178
0.00201049
0.00200987
0.0020095
0.00200931
0.00200922
0.0020092
0.00200918
0.00200916
0.00200914
0.00200912
0.0020091
0.00200908
0.00200907
0.00200905
0.00200903
0.00200901
0.00200899
0.00200898
0.002009
0.00196832
0.00196838
0.00196848
0.00196862
0.00196881
0.00196906
0.00196935
0.00196968
0.00197006
0.00197047
0.00197093
0.00197146
0.00197207
0.00197276
0.00197353
0.00197443
0.00197551
0.00197688
0.00197876
0.00198178
0.00198736
0.00199934
0.00203487
0.00212823
0.00277266
0.0139048
0.0878725
0.0927434
0.0645559
0.0611628
0.0627506
0.0490747
0.0167298
0.00467094
0.0028591
0.00232695
0.00209349
0.00201933
0.00198931
0.00197676
0.00197331
0.0019719
0.00197126
0.00197085
0.00197059
0.00197042
0.00197033
0.00197027
0.0019702
0.00197014
0.00197008
0.00197002
0.00196997
0.00196992
0.00196988
0.00196984
0.0019698
0.00196977
0.00196975
0.00196977
0.00193018
0.00193025
0.00193034
0.00193049
0.00193068
0.00193092
0.00193121
0.00193153
0.0019319
0.00193231
0.00193279
0.00193334
0.00193395
0.00193464
0.00193541
0.00193631
0.00193737
0.00193874
0.00194058
0.00194354
0.00194916
0.00196101
0.00199732
0.00209866
0.00325556
0.0197199
0.0853082
0.0856962
0.0629517
0.0598591
0.053583
0.0345666
0.0126579
0.00500145
0.00297446
0.00245536
0.00205991
0.00198225
0.00195265
0.00193988
0.00193631
0.00193482
0.00193409
0.00193363
0.00193332
0.00193309
0.00193292
0.0019328
0.0019327
0.00193259
0.00193249
0.0019324
0.00193231
0.00193223
0.00193217
0.00193211
0.00193206
0.00193202
0.00193199
0.001932
0.00189342
0.00189349
0.00189358
0.00189373
0.00189392
0.00189415
0.00189442
0.00189474
0.00189511
0.00189555
0.00189603
0.00189658
0.00189719
0.00189788
0.00189865
0.00189955
0.00190061
0.00190197
0.0019038
0.00190677
0.00191241
0.00192423
0.00196154
0.00206705
0.00359618
0.0222494
0.0802897
0.0840121
0.0627264
0.0593418
0.0458337
0.0254281
0.0113869
0.0086984
0.00359887
0.00258922
0.00202969
0.00194724
0.0019177
0.00190452
0.00190075
0.00189917
0.00189837
0.0018978
0.0018974
0.0018971
0.00189689
0.00189672
0.00189656
0.00189642
0.00189628
0.00189615
0.00189604
0.00189593
0.00189584
0.00189576
0.0018957
0.00189565
0.00189562
0.00189562
0.00185797