/*--------------------------------*- C++ -*----------------------------------*\
  =========                 |
  \\      /  F ield         | OpenFOAM: The Open Source CFD Toolbox
   \\    /   O peration     | Website:  https://openfoam.org
    \\  /    A nd           | Version:  12
     \\/     M anipulation  |
\*---------------------------------------------------------------------------*/
FoamFile
{
    format      ascii;
    class       volScalarField;
    location    "480";
    object      nut;
}
// * * * * * * * * * * * * * * * * * * * * * * * * * * * * * * * * * * * * * //

dimensions      [0 2 -1 0 0 0 0];

internalField   nonuniform List<scalar> 
16227
(
0.000978543
0.000978543
0.000978543
0.000978543
0.000978543
0.000978543
0.000978543
0.000978543
0.000978543
0.000978543
0.000978543
0.000978543
0.000978544
0.000978544
0.000978544
0.000978544
0.000978544
0.000978544
0.000978544
0.000978544
0.000978544
0.000978544
0.000978544
0.000978544
0.000978544
0.000978544
0.000978544
0.000978544
0.000978544
0.000978544
0.000978544
0.000978544
0.000978544
0.000978544
0.000978544
0.000978544
0.000978544
0.000978544
0.000978544
0.000978544
0.000978544
0.000978544
0.000978544
0.000978544
0.000978544
0.000978544
0.000978544
0.000978544
0.000978544
0.000978544
0.000978544
0.000978543
0.000978543
0.000978543
0.000978543
0.000978543
0.000978543
0.000978543
0.000978543
0.000978543
0.000972834
0.000972834
0.000972834
0.000972834
0.000972834
0.000972834
0.000972834
0.000972834
0.000972834
0.000972834
0.000972835
0.000972835
0.000972836
0.000972836
0.000972837
0.000972837
0.000972837
0.000972837
0.000972837
0.000972837
0.000972837
0.000972837
0.000972837
0.000972837
0.000972837
0.000972837
0.000972837
0.000972837
0.000972837
0.000972836
0.000972837
0.000972837
0.000972837
0.000972837
0.000972837
0.000972837
0.000972836
0.000972836
0.000972836
0.000972836
0.000972836
0.000972836
0.000972836
0.000972836
0.000972836
0.000972836
0.000972836
0.000972836
0.000972836
0.000972836
0.000972836
0.000972836
0.000972835
0.000972835
0.000972834
0.000972834
0.000972835
0.000972834
0.000972834
0.000972834
0.000967494
0.000967494
0.000967494
0.000967494
0.000967494
0.000967495
0.000967495
0.000967495
0.000967495
0.000967495
0.000967495
0.000967495
0.000967497
0.000967498
0.000967498
0.000967498
0.000967498
0.000967498
0.000967498
0.000967498
0.000967498
0.000967498
0.000967498
0.000967498
0.000967498
0.000967498
0.000967498
0.000967498
0.000967498
0.000967497
0.000967498
0.000967498
0.000967498
0.000967498
0.000967498
0.000967498
0.000967498
0.000967498
0.000967498
0.000967498
0.000967498
0.000967498
0.000967498
0.000967498
0.000967498
0.000967498
0.000967498
0.000967498
0.000967498
0.000967497
0.000967497
0.000967495
0.000967495
0.000967495
0.000967495
0.000967495
0.000967495
0.000967494
0.000967494
0.000967494
0.000962481
0.000962482
0.000962482
0.000962482
0.000962482
0.000962482
0.000962482
0.000962482
0.000962482
0.000962482
0.000962483
0.000962483
0.000962486
0.000962486
0.000962487
0.000962487
0.000962487
0.000962487
0.000962486
0.000962485
0.000962486
0.000962487
0.000962486
0.000962486
0.000962486
0.000962486
0.000962486
0.000962486
0.000962486
0.000962485
0.000962485
0.000962485
0.000962485
0.000962485
0.000962485
0.000962485
0.000962485
0.000962485
0.000962485
0.000962485
0.000962485
0.000962485
0.000962485
0.000962485
0.000962485
0.000962485
0.000962485
0.000962485
0.000962485
0.000962485
0.000962484
0.000962482
0.000962481
0.000962482
0.000962482
0.000962482
0.000962482
0.000962481
0.000962481
0.000962481
0.000957761
0.000957761
0.000957761
0.000957761
0.000957761
0.000957762
0.000957762
0.000957761
0.000957762
0.000957762
0.000957762
0.000957763
0.000957765
0.000957766
0.000957767
0.000957767
0.000957767
0.000957767
0.000957764
0.000957764
0.000957766
0.000957766
0.000957766
0.000957766
0.000957765
0.000957765
0.000957765
0.000957765
0.000957764
0.000957763
0.000957764
0.000957764
0.000957764
0.000957764
0.000957763
0.000957763
0.000957763
0.000957764
0.000957764
0.000957764
0.000957764
0.000957764
0.000957764
0.000957764
0.000957764
0.000957764
0.000957764
0.000957764
0.000957764
0.000957764
0.000957761
0.00095776
0.00095776
0.00095776
0.00095776
0.000957761
0.00095776
0.000957759
0.000957759
0.000957759
0.000953302
0.000953302
0.000953302
0.000953302
0.000953302
0.000953302
0.000953303
0.000953303
0.000953303
0.000953303
0.000953303
0.000953303
0.000953304
0.000953307
0.000953308
0.000953308
0.000953308
0.000953307
0.000953305
0.000953304
0.000953306
0.000953307
0.000953307
0.000953306
0.000953306
0.000953305
0.000953305
0.000953304
0.000953304
0.000953302
0.000953303
0.000953303
0.000953303
0.000953302
0.000953302
0.000953302
0.000953302
0.000953302
0.000953302
0.000953303
0.000953303
0.000953303
0.000953303
0.000953303
0.000953303
0.000953304
0.000953304
0.000953304
0.000953304
0.000953303
0.0009533
0.000953299
0.000953299
0.0009533
0.0009533
0.0009533
0.0009533
0.000953299
0.000953299
0.000953299
0.000949079
0.000949079
0.000949079
0.000949079
0.000949079
0.00094908
0.00094908
0.00094908
0.00094908
0.00094908
0.00094908
0.00094908
0.000949081
0.000949084
0.000949086
0.000949086
0.000949086
0.000949082
0.000949081
0.000949081
0.000949083
0.000949083
0.000949083
0.000949082
0.000949081
0.00094908
0.00094908
0.000949079
0.000949078
0.000949076
0.000949077
0.000949077
0.000949076
0.000949076
0.000949076
0.000949076
0.000949076
0.000949076
0.000949076
0.000949076
0.000949077
0.000949077
0.000949077
0.000949078
0.000949078
0.000949078
0.000949079
0.000949079
0.000949078
0.000949076
0.000949074
0.000949074
0.000949074
0.000949075
0.000949075
0.000949075
0.000949075
0.000949074
0.000949075
0.000949074
0.00094507
0.00094507
0.00094507
0.00094507
0.00094507
0.000945071
0.000945071
0.000945072
0.000945071
0.000945071
0.000945071
0.00094507
0.000945071
0.000945073
0.000945076
0.000945077
0.000945077
0.000945072
0.000945071
0.000945071
0.000945073
0.000945073
0.000945072
0.000945071
0.00094507
0.000945069
0.000945068
0.000945066
0.000945065
0.000945063
0.000945063
0.000945063
0.000945062
0.000945062
0.000945062
0.000945062
0.000945062
0.000945062
0.000945062
0.000945063
0.000945063
0.000945064
0.000945064
0.000945065
0.000945065
0.000945066
0.000945066
0.000945067
0.000945065
0.000945063
0.000945062
0.000945061
0.000945063
0.000945063
0.000945064
0.000945064
0.000945063
0.000945063
0.000945063
0.000945063
0.000941256
0.000941256
0.000941256
0.000941256
0.000941256
0.000941257
0.000941257
0.000941257
0.000941257
0.000941257
0.000941256
0.000941256
0.000941256
0.000941257
0.000941262
0.000941263
0.000941261
0.000941257
0.000941255
0.000941255
0.000941257
0.000941257
0.000941255
0.000941254
0.000941252
0.000941251
0.000941249
0.000941247
0.000941245
0.000941243
0.000941243
0.000941242
0.000941242
0.000941241
0.000941241
0.000941241
0.000941241
0.000941241
0.000941241
0.000941242
0.000941243
0.000941244
0.000941244
0.000941245
0.000941246
0.000941247
0.000941248
0.000941247
0.000941244
0.000941243
0.000941243
0.000941244
0.000941245
0.000941245
0.000941246
0.000941246
0.000941246
0.000941245
0.000941246
0.000941246
0.00093762
0.00093762
0.00093762
0.00093762
0.00093762
0.00093762
0.000937621
0.000937621
0.000937621
0.000937621
0.00093762
0.00093762
0.00093762
0.000937621
0.000937625
0.000937626
0.000937622
0.000937619
0.000937617
0.000937617
0.000937619
0.000937618
0.000937616
0.000937614
0.000937611
0.000937609
0.000937607
0.000937605
0.000937602
0.000937599
0.000937599
0.000937598
0.000937597
0.000937596
0.000937596
0.000937596
0.000937596
0.000937596
0.000937597
0.000937598
0.000937599
0.0009376
0.000937601
0.000937602
0.000937603
0.000937604
0.000937605
0.000937605
0.000937602
0.000937601
0.000937602
0.000937602
0.000937604
0.000937604
0.000937605
0.000937606
0.000937605
0.000937605
0.000937605
0.000937606
0.000934147
0.000934147
0.000934147
0.000934147
0.000934147
0.000934147
0.000934148
0.000934148
0.000934148
0.000934148
0.000934148
0.000934146
0.000934146
0.000934147
0.000934148
0.000934151
0.000934147
0.000934144
0.000934143
0.000934141
0.000934142
0.000934141
0.000934139
0.000934136
0.000934133
0.00093413
0.000934127
0.000934124
0.000934121
0.000934117
0.000934116
0.000934115
0.000934114
0.000934113
0.000934112
0.000934112
0.000934112
0.000934113
0.000934114
0.000934115
0.000934116
0.000934117
0.000934119
0.000934121
0.000934122
0.000934124
0.000934124
0.000934123
0.000934121
0.000934121
0.000934122
0.000934123
0.000934125
0.000934126
0.000934127
0.000934127
0.000934127
0.000934127
0.000934128
0.000934128
0.000930824
0.000930824
0.000930824
0.000930824
0.000930824
0.000930825
0.000930825
0.000930825
0.000930825
0.000930825
0.000930825
0.000930824
0.000930823
0.000930823
0.000930824
0.000930826
0.000930823
0.00093082
0.000930817
0.000930815
0.000930813
0.000930814
0.000930811
0.000930807
0.000930803
0.0009308
0.000930796
0.000930792
0.000930788
0.000930784
0.000930782
0.00093078
0.000930779
0.000930778
0.000930777
0.000930777
0.000930777
0.000930778
0.000930779
0.00093078
0.000930782
0.000930784
0.000930786
0.000930788
0.00093079
0.000930791
0.00093079
0.00093079
0.00093079
0.000930791
0.000930792
0.000930794
0.000930795
0.000930797
0.000930798
0.000930799
0.000930799
0.000930799
0.000930799
0.000930799
0.00092764
0.00092764
0.00092764
0.00092764
0.00092764
0.000927641
0.000927641
0.000927641
0.000927641
0.000927641
0.000927641
0.00092764
0.000927638
0.000927637
0.000927637
0.000927637
0.000927636
0.000927634
0.000927631
0.000927628
0.000927625
0.000927625
0.000927621
0.000927617
0.000927612
0.000927607
0.000927602
0.000927597
0.000927592
0.000927587
0.000927585
0.000927583
0.00092758
0.000927579
0.000927578
0.000927578
0.000927578
0.000927579
0.00092758
0.000927582
0.000927584
0.000927587
0.000927589
0.000927592
0.000927594
0.000927595
0.000927595
0.000927596
0.000927597
0.000927598
0.000927599
0.000927601
0.000927604
0.000927605
0.000927607
0.000927608
0.000927608
0.000927608
0.000927609
0.000927609
0.000924584
0.000924584
0.000924584
0.000924584
0.000924584
0.000924585
0.000924585
0.000924585
0.000924585
0.000924585
0.000924585
0.000924584
0.000924582
0.000924581
0.00092458
0.000924579
0.000924578
0.000924576
0.000924572
0.000924569
0.000924565
0.000924564
0.00092456
0.000924554
0.000924548
0.000924542
0.000924535
0.00092453
0.000924524
0.000924517
0.000924514
0.000924511
0.000924509
0.000924507
0.000924506
0.000924505
0.000924506
0.000924507
0.000924509
0.000924511
0.000924514
0.000924517
0.00092452
0.000924523
0.000924524
0.000924526
0.000924527
0.000924529
0.00092453
0.000924532
0.000924534
0.000924537
0.000924539
0.000924541
0.000924543
0.000924544
0.000924544
0.000924545
0.000924546
0.000924546
0.000921647
0.000921647
0.000921647
0.000921647
0.000921648
0.000921648
0.000921649
0.000921649
0.000921649
0.000921649
0.000921648
0.000921647
0.000921646
0.000921644
0.000921643
0.000921642
0.000921641
0.000921638
0.000921633
0.000921629
0.000921624
0.000921622
0.000921616
0.000921609
0.000921602
0.000921594
0.000921587
0.00092158
0.000921573
0.000921565
0.000921561
0.000921557
0.000921554
0.000921552
0.000921551
0.00092155
0.000921551
0.000921552
0.000921554
0.000921557
0.00092156
0.000921564
0.000921568
0.000921571
0.000921572
0.000921574
0.000921577
0.00092158
0.000921582
0.000921584
0.000921587
0.00092159
0.000921593
0.000921595
0.000921597
0.000921599
0.000921599
0.0009216
0.000921601
0.000921601
0.000918821
0.000918821
0.000918821
0.000918821
0.000918822
0.000918822
0.000918823
0.000918823
0.000918823
0.000918823
0.000918823
0.000918822
0.00091882
0.000918819
0.000918817
0.000918815
0.000918814
0.000918811
0.000918805
0.0009188
0.000918794
0.00091879
0.000918784
0.000918776
0.000918767
0.000918758
0.000918749
0.00091874
0.000918731
0.000918723
0.000918718
0.000918713
0.000918709
0.000918706
0.000918705
0.000918704
0.000918705
0.000918707
0.000918709
0.000918712
0.000918716
0.000918721
0.000918725
0.000918728
0.00091873
0.000918733
0.000918737
0.00091874
0.000918743
0.000918746
0.00091875
0.000918754
0.000918757
0.00091876
0.000918762
0.000918764
0.000918765
0.000918765
0.000918766
0.000918766
0.000916098
0.000916098
0.000916098
0.000916099
0.000916099
0.0009161
0.000916101
0.000916101
0.000916101
0.000916101
0.000916101
0.0009161
0.000916099
0.000916097
0.000916095
0.000916093
0.000916092
0.000916087
0.000916081
0.000916075
0.000916068
0.00091606
0.000916055
0.000916046
0.000916035
0.000916024
0.000916014
0.000916003
0.000915993
0.000915983
0.000915977
0.000915971
0.000915966
0.000915963
0.000915961
0.00091596
0.000915961
0.000915963
0.000915966
0.00091597
0.000915975
0.000915979
0.000915983
0.000915986
0.00091599
0.000915995
0.000916
0.000916003
0.000916007
0.000916012
0.000916016
0.00091602
0.000916023
0.000916027
0.000916029
0.000916031
0.000916033
0.000916034
0.000916034
0.000916035
0.000913472
0.000913472
0.000913472
0.000913473
0.000913473
0.000913474
0.000913475
0.000913476
0.000913476
0.000913476
0.000913476
0.000913475
0.000913474
0.000913472
0.00091347
0.000913468
0.000913466
0.000913462
0.000913455
0.000913447
0.000913439
0.00091343
0.000913423
0.000913413
0.000913401
0.000913389
0.000913376
0.000913364
0.000913352
0.00091334
0.000913332
0.000913325
0.000913319
0.000913315
0.000913313
0.000913312
0.000913313
0.000913315
0.000913319
0.000913323
0.000913328
0.000913333
0.000913336
0.000913341
0.000913347
0.000913353
0.000913358
0.000913363
0.000913367
0.000913372
0.000913377
0.000913382
0.000913386
0.00091339
0.000913393
0.000913395
0.000913397
0.000913398
0.000913399
0.000913399
0.000910936
0.000910936
0.000910937
0.000910937
0.000910938
0.000910939
0.00091094
0.000910941
0.000910942
0.000910942
0.000910942
0.000910942
0.00091094
0.000910939
0.000910937
0.000910935
0.000910932
0.000910927
0.000910921
0.000910912
0.000910903
0.000910893
0.000910884
0.000910873
0.00091086
0.000910845
0.000910831
0.000910817
0.000910803
0.000910789
0.00091078
0.000910771
0.000910764
0.000910759
0.000910755
0.000910754
0.000910755
0.000910757
0.000910761
0.000910766
0.000910771
0.000910776
0.00091078
0.000910786
0.000910793
0.0009108
0.000910806
0.000910811
0.000910818
0.000910824
0.000910829
0.000910834
0.000910839
0.000910843
0.000910846
0.000910849
0.000910851
0.000910852
0.000910853
0.000910854
0.000908485
0.000908485
0.000908486
0.000908487
0.000908488
0.000908489
0.00090849
0.000908492
0.000908493
0.000908493
0.000908494
0.000908493
0.000908493
0.000908491
0.000908489
0.000908487
0.000908485
0.00090848
0.000908473
0.000908464
0.000908454
0.000908443
0.000908431
0.000908421
0.000908407
0.000908391
0.000908375
0.000908359
0.000908343
0.000908327
0.000908315
0.000908305
0.000908296
0.000908289
0.000908285
0.000908283
0.000908283
0.000908285
0.000908288
0.000908292
0.000908298
0.000908303
0.000908309
0.000908317
0.000908325
0.000908332
0.000908339
0.000908345
0.000908353
0.000908359
0.000908366
0.000908371
0.000908376
0.000908381
0.000908385
0.000908387
0.000908389
0.000908391
0.000908392
0.000908393
0.000906114
0.000906114
0.000906115
0.000906116
0.000906117
0.000906119
0.00090612
0.000906122
0.000906124
0.000906125
0.000906126
0.000906126
0.000906125
0.000906125
0.000906123
0.00090612
0.000906118
0.000906114
0.000906108
0.000906099
0.000906089
0.000906077
0.000906064
0.000906055
0.00090604
0.000906024
0.000906006
0.000905989
0.00090597
0.000905952
0.000905938
0.000905925
0.000905913
0.000905904
0.000905897
0.000905894
0.000905893
0.000905894
0.000905896
0.0009059
0.000905905
0.000905911
0.000905919
0.000905928
0.000905936
0.000905944
0.000905951
0.00090596
0.000905968
0.000905975
0.000905982
0.000905988
0.000905994
0.000905998
0.000906003
0.000906006
0.000906008
0.00090601
0.000906011
0.000906012
0.000903818
0.000903818
0.000903819
0.00090382
0.000903822
0.000903824
0.000903826
0.000903828
0.00090383
0.000903832
0.000903833
0.000903834
0.000903835
0.000903835
0.000903833
0.000903832
0.00090383
0.000903827
0.000903822
0.000903814
0.000903804
0.000903793
0.000903782
0.000903773
0.00090376
0.000903745
0.000903727
0.000903709
0.000903689
0.000903667
0.000903649
0.000903631
0.000903615
0.000903602
0.000903593
0.000903587
0.000903583
0.000903582
0.000903583
0.000903586
0.00090359
0.000903597
0.000903606
0.000903615
0.000903624
0.000903632
0.00090364
0.000903649
0.000903658
0.000903666
0.000903674
0.00090368
0.000903686
0.000903691
0.000903696
0.000903699
0.000903702
0.000903704
0.000903705
0.000903706
0.000901592
0.000901593
0.000901594
0.000901595
0.000901597
0.0009016
0.000901602
0.000901605
0.000901608
0.00090161
0.000901613
0.000901614
0.000901616
0.000901617
0.000901617
0.000901616
0.000901616
0.000901614
0.000901611
0.000901605
0.000901598
0.00090159
0.000901582
0.000901576
0.000901577
0.000901564
0.000901549
0.000901531
0.000901509
0.000901484
0.000901459
0.000901435
0.000901411
0.000901391
0.000901376
0.000901366
0.000901352
0.000901347
0.000901344
0.000901345
0.000901349
0.000901356
0.000901365
0.000901374
0.000901383
0.000901392
0.000901401
0.000901411
0.00090142
0.000901429
0.000901437
0.000901444
0.00090145
0.000901456
0.00090146
0.000901464
0.000901467
0.000901469
0.00090147
0.000901471
0.000899434
0.000899435
0.000899436
0.000899437
0.00089944
0.000899442
0.000899446
0.000899449
0.000899453
0.000899456
0.00089946
0.000899463
0.000899465
0.000899468
0.00089947
0.000899471
0.000899472
0.000899472
0.000899473
0.000899472
0.00089947
0.000899468
0.000899469
0.000899492
0.000900487
0.000900484
0.000900471
0.000900453
0.000900431
0.000900404
0.000900376
0.000900346
0.000900317
0.000900291
0.000900271
0.000900256
0.000899221
0.00089919
0.000899182
0.000899179
0.000899181
0.000899187
0.000899194
0.000899202
0.000899211
0.00089922
0.000899231
0.000899241
0.000899251
0.000899259
0.000899268
0.000899275
0.000899282
0.000899287
0.000899292
0.000899296
0.000899299
0.000899301
0.000899302
0.000899303
0.000897338
0.000897339
0.000897341
0.000897343
0.000897345
0.000897348
0.000897352
0.000897357
0.000897361
0.000897366
0.00089737
0.000897375
0.00089738
0.000897384
0.000897388
0.000897392
0.000897395
0.0008974
0.000897405
0.000897412
0.000897419
0.000897429
0.000897461
0.000898448
0.000898397
0.000898418
0.00089842
0.000898413
0.000898394
0.000898363
0.000898323
0.000898275
0.000898225
0.000898179
0.000898142
0.000898112
0.000898153
0.000897128
0.000897099
0.000897088
0.000897084
0.000897087
0.000897091
0.000897097
0.000897106
0.000897115
0.000897126
0.000897136
0.000897146
0.000897155
0.000897163
0.00089717
0.000897177
0.000897183
0.000897188
0.000897192
0.000897195
0.000897197
0.000897199
0.0008972
0.000895302
0.000895303
0.000895305
0.000895307
0.00089531
0.000895314
0.000895319
0.000895324
0.00089533
0.000895336
0.000895342
0.000895348
0.000895355
0.000895362
0.000895369
0.000895377
0.000895385
0.000895395
0.000895408
0.000895425
0.000895447
0.000895479
0.000895553
0.000896451
0.000896435
0.00089696
0.000896979
0.000896984
0.000896977
0.000896949
0.000896902
0.000896834
0.000896756
0.000896681
0.00089662
0.000896097
0.000896088
0.000895151
0.000895098
0.000895069
0.000895057
0.000895053
0.000895053
0.000895057
0.000895065
0.000895074
0.000895083
0.000895093
0.000895102
0.000895111
0.000895119
0.000895127
0.000895134
0.00089514
0.000895145
0.000895149
0.000895152
0.000895154
0.000895155
0.000895156
0.000893323
0.000893324
0.000893326
0.000893328
0.000893332
0.000893337
0.000893342
0.000893349
0.000893356
0.000893363
0.000893371
0.000893379
0.000893389
0.000893399
0.00089341
0.000893422
0.000893436
0.000893454
0.000893478
0.000893511
0.000893556
0.000893624
0.00089376
0.00089458
0.000894616
0.000895148
0.000895188
0.000895241
0.000895287
0.000895304
0.000895268
0.000895171
0.000895028
0.000894866
0.000894709
0.000894214
0.000894124
0.000893265
0.00089318
0.000893126
0.0008931
0.000893085
0.00089308
0.00089308
0.000893085
0.000893092
0.000893101
0.000893109
0.000893118
0.000893127
0.000893135
0.000893142
0.000893149
0.000893154
0.000893159
0.000893163
0.000893166
0.000893168
0.00089317
0.000893171
0.000891397
0.000891398
0.0008914
0.000891403
0.000891408
0.000891413
0.000891419
0.000891427
0.000891435
0.000891444
0.000891454
0.000891465
0.000891477
0.000891491
0.000891507
0.000891525
0.000891548
0.000891577
0.000891616
0.000891671
0.00089175
0.000891878
0.0008921
0.000892856
0.000893004
0.00089362
0.000893693
0.000893899
0.000894115
0.000894264
0.000894261
0.000894077
0.000893758
0.000893382
0.000893022
0.000892427
0.000892292
0.000891473
0.000891348
0.000891259
0.000891211
0.000891184
0.00089117
0.000891165
0.000891165
0.00089117
0.000891176
0.000891183
0.000891191
0.000891198
0.000891206
0.000891212
0.000891219
0.000891224
0.000891229
0.000891233
0.000891235
0.000891238
0.000891239
0.00089124
0.000889521
0.000889523
0.000889525
0.000889529
0.000889534
0.00088954
0.000889547
0.000889556
0.000889566
0.000889577
0.000889589
0.000889603
0.000889618
0.000889636
0.000889658
0.000889684
0.000889717
0.00088976
0.00088982
0.000889907
0.000890034
0.000890257
0.000890593
0.000891313
0.000891723
0.000892536
0.000892742
0.000893463
0.000894245
0.000894802
0.000894816
0.00089427
0.000893395
0.000892494
0.000891728
0.00089074
0.000890644
0.000889775
0.000889601
0.000889471
0.000889393
0.000889348
0.000889322
0.000889308
0.000889303
0.000889303
0.000889306
0.000889311
0.000889317
0.000889324
0.00088933
0.000889336
0.000889342
0.000889347
0.000889351
0.000889355
0.000889357
0.000889359
0.000889361
0.000889362
0.000887694
0.000887696
0.000887699
0.000887703
0.000887708
0.000887715
0.000887724
0.000887734
0.000887745
0.000887758
0.000887773
0.000887789
0.000887809
0.000887832
0.00088786
0.000887894
0.00088794
0.000888001
0.000888088
0.000888219
0.000888416
0.000888776
0.000889258
0.000890001
0.000890965
0.0008921
0.000892921
0.000895332
0.000898272
0.000900425
0.000900215
0.000897927
0.000895106
0.000892798
0.000891164
0.000889238
0.000889237
0.000888183
0.000887942
0.000887767
0.000887647
0.000887578
0.000887535
0.00088751
0.000887497
0.000887491
0.00088749
0.000887492
0.000887496
0.0008875
0.000887505
0.00088751
0.000887515
0.00088752
0.000887524
0.000887527
0.000887529
0.000887531
0.000887532
0.000887533
0.000885912
0.000885915
0.000885918
0.000885922
0.000885928
0.000885936
0.000885946
0.000885957
0.00088597
0.000885985
0.000886002
0.000886022
0.000886046
0.000886074
0.000886109
0.000886154
0.000886213
0.000886296
0.000886417
0.000886604
0.000886897
0.000887446
0.000888097
0.000888983
0.000890958
0.000892615
0.000895749
0.000904078
0.000917153
0.000927997
0.000925359
0.000912973
0.000902012
0.000895463
0.000891838
0.000888207
0.000888111
0.000886719
0.000886367
0.000886146
0.000885972
0.00088587
0.000885806
0.000885767
0.000885744
0.000885731
0.000885725
0.000885723
0.000885724
0.000885726
0.00088573
0.000885733
0.000885737
0.000885741
0.000885744
0.000885747
0.000885748
0.00088575
0.000885751
0.000885752
0.000884175
0.000884177
0.00088418
0.000884185
0.000884192
0.000884201
0.000884212
0.000884224
0.000884239
0.000884256
0.000884276
0.000884299
0.000884327
0.000884361
0.000884404
0.000884459
0.000884534
0.000884641
0.000884802
0.000885057
0.000885474
0.00088626
0.000887093
0.00088833
0.000891864
0.000894721
0.000905315
0.000840782
0.000375331
0.0002598
0.000292965
0.000501407
0.000922709
0.000902408
0.000894265
0.000888107
0.000887282
0.000885423
0.000884876
0.000884603
0.000884364
0.000884224
0.000884134
0.000884077
0.000884042
0.000884021
0.000884009
0.000884002
0.000884
0.000883999
0.000884001
0.000884003
0.000884005
0.000884008
0.00088401
0.000884012
0.000884013
0.000884015
0.000884015
0.000884017
0.000882478
0.000882481
0.000882484
0.00088249
0.000882498
0.000882507
0.000882519
0.000882533
0.000882549
0.000882568
0.000882591
0.000882617
0.000882649
0.000882689
0.00088274
0.000882806
0.000882898
0.000883031
0.000883236
0.000883569
0.000884132
0.000885186
0.000886195
0.000888084
0.000893714
0.000899599
0.000930099
0.000388928
0.000164814
9.31339e-05
0.000117143
0.00023081
0.000622974
0.000915303
0.000898467
0.000889323
0.000886753
0.000884344
0.000883471
0.00088313
0.00088282
0.000882634
0.000882515
0.000882438
0.000882389
0.000882358
0.000882339
0.000882327
0.00088232
0.000882317
0.000882316
0.000882316
0.000882317
0.000882318
0.00088232
0.000882321
0.000882322
0.000882322
0.000882323
0.000882324
0.000880821
0.000880824
0.000880828
0.000880834
0.000880842
0.000880853
0.000880866
0.000880881
0.000880899
0.00088092
0.000880945
0.000880975
0.000881011
0.000881056
0.000881114
0.000881192
0.0008813
0.00088146
0.000881709
0.000882123
0.000882847
0.000884169
0.000885335
0.000888213
0.000896418
0.000907925
0.000865292
0.000315709
0.000191387
0.000124804
0.000636706
0.000930441
0.000903295
0.00089183
0.000886542
0.000883533
0.000882167
0.000881717
0.000881333
0.000881097
0.000880944
0.000880846
0.000880782
0.00088074
0.000880713
0.000880695
0.000880684
0.000880677
0.000880673
0.000880671
0.00088067
0.00088067
0.000880671
0.000880671
0.000880671
0.000880672
0.000880672
0.000880673
0.000879202
0.000879205
0.000879209
0.000879216
0.000879225
0.000879236
0.00087925
0.000879267
0.000879286
0.000879309
0.000879337
0.00087937
0.00087941
0.00087946
0.000879525
0.000879612
0.000879736
0.00087992
0.000880212
0.000880702
0.000881588
0.000883148
0.000884516
0.000888651
0.000899931
0.000917812
0.000889593
0.00044382
0.000230754
0.00117787
0.000320531
0.00090677
0.000938743
0.000907512
0.000895307
0.000886715
0.000883032
0.000880987
0.00088036
0.000879898
0.000879607
0.00087942
0.000879299
0.000879219
0.000879165
0.000879129
0.000879105
0.000879089
0.000879079
0.000879072
0.000879067
0.000879065
0.000879063
0.000879062
0.000879061
0.000879061
0.000879061
0.000879061
0.000879062
0.000877619
0.000877622
0.000877627
0.000877634
0.000877643
0.000877655
0.00087767
0.000877688
0.000877709
0.000877734
0.000877764
0.000877799
0.000877843
0.000877898
0.000877969
0.000878064
0.000878201
0.000878405
0.000878733
0.00087929
0.000880332
0.000882085
0.00088387
0.000889459
0.000904295
0.000928049
0.00105981
0.000725173
0.000349095
0.0144956
0.0120379
0.000543924
0.000852431
0.000945629
0.000912494
0.000899775
0.000887398
0.000882856
0.000879951
0.000879049
0.000878504
0.000878159
0.000877938
0.000877792
0.000877696
0.000877631
0.000877586
0.000877555
0.000877534
0.000877519
0.000877509
0.000877502
0.000877497
0.000877494
0.000877491
0.00087749
0.000877488
0.000877487
0.000877487
0.000877488
0.000876071
0.000876074
0.000876079
0.000876086
0.000876096
0.000876109
0.000876125
0.000876144
0.000876166
0.000876193
0.000876225
0.000876263
0.000876309
0.000876368
0.000876444
0.000876546
0.000876692
0.000876911
0.000877267
0.000877874
0.000879047
0.000880985
0.000883525
0.000890716
0.000909824
0.000940737
0.0011163
0.00106341
0.000558525
0.00690349
0.018248
0.0163167
0.00153929
0.000972904
0.000921677
0.000905216
0.000888702
0.000882957
0.000879057
0.000877778
0.000877143
0.000876745
0.000876491
0.000876323
0.00087621
0.000876133
0.00087608
0.000876043
0.000876016
0.000875997
0.000875983
0.000875973
0.000875966
0.000875961
0.000875957
0.000875954
0.000875952
0.00087595
0.000875949
0.00087595
0.000874555
0.000874559
0.000874564
0.000874572
0.000874582
0.000874596
0.000874612
0.000874632
0.000874656
0.000874684
0.000874718
0.000874758
0.000874807
0.000874868
0.000874948
0.000875054
0.000875206
0.000875434
0.000875806
0.00087645
0.000877714
0.000879871
0.000883523
0.000892524
0.000916572
0.000959588
0.00116048
0.00126346
0.000989212
0.0023733
0.00692633
0.0140256
0.00447521
0.00111761
0.000936806
0.000910308
0.000890507
0.00088319
0.000878267
0.000876532
0.000875803
0.000875357
0.000875074
0.000874886
0.000874759
0.000874671
0.000874609
0.000874565
0.000874533
0.00087451
0.000874492
0.000874479
0.00087447
0.000874463
0.000874457
0.000874453
0.00087445
0.000874448
0.000874446
0.000874447
0.000873071
0.000873075
0.000873081
0.000873089
0.0008731
0.000873114
0.000873131
0.000873152
0.000873177
0.000873207
0.000873242
0.000873284
0.000873335
0.000873398
0.000873479
0.000873587
0.000873741
0.000873975
0.000874356
0.000875022
0.000876331
0.00087874
0.000883744
0.000894931
0.000924723
0.000982686
0.00121781
0.00152989
0.00167682
0.00187109
0.00371477
0.00822964
0.00611846
0.00127276
0.000957777
0.000913303
0.000892392
0.000883327
0.000877504
0.000875298
0.000874475
0.000873989
0.000873684
0.000873479
0.000873339
0.000873241
0.000873172
0.000873121
0.000873084
0.000873056
0.000873035
0.000873019
0.000873007
0.000872998
0.00087299
0.000872985
0.000872981
0.000872978
0.000872976
0.000872976
0.000871618
0.000871622
0.000871628
0.000871636
0.000871648
0.000871662
0.00087168
0.000871702
0.000871728
0.000871759
0.000871795
0.000871839
0.000871891
0.000871954
0.000872036
0.000872147
0.000872303
0.000872538
0.000872919
0.000873596
0.000874918
0.000877559
0.000883932
0.000897702
0.000934978
0.0010083
0.00146311
0.00280152
0.006231
0.0091854
0.00705049
0.0155045
0.00599268
0.0013086
0.00098096
0.000914268
0.000894044
0.000883184
0.000876692
0.000874064
0.000873152
0.000872637
0.000872316
0.000872098
0.000871948
0.000871842
0.000871766
0.000871709
0.000871666
0.000871634
0.000871609
0.00087159
0.000871576
0.000871564
0.000871555
0.000871548
0.000871543
0.000871539
0.000871537
0.000871537
0.000870194
0.000870198
0.000870204
0.000870213
0.000870224
0.00087024
0.000870259
0.000870281
0.000870308
0.00087034
0.000870377
0.000870421
0.000870473
0.000870539
0.000870623
0.000870734
0.00087089
0.000871124
0.000871501
0.000872181
0.000873509
0.000876301
0.000883829
0.000900289
0.000944368
0.00111018
0.00583866
0.0118113
0.0119013
0.0111493
0.0130813
0.021384
0.00495465
0.00132048
0.00101025
0.000916914
0.00089523
0.000882632
0.000875777
0.000872826
0.000871836
0.000871301
0.00087097
0.000870742
0.000870585
0.000870472
0.000870389
0.000870327
0.000870279
0.000870243
0.000870214
0.000870192
0.000870175
0.000870161
0.00087015
0.000870142
0.000870135
0.000870131
0.000870128
0.000870128
0.000868798
0.000868802
0.000868808
0.000868817
0.000868829
0.000868845
0.000868864
0.000868888
0.000868915
0.000868948
0.000868985
0.000869029
0.000869084