/*--------------------------------*- C++ -*----------------------------------*\
  =========                 |
  \\      /  F ield         | OpenFOAM: The Open Source CFD Toolbox
   \\    /   O peration     | Website:  https://openfoam.org
    \\  /    A nd           | Version:  12
     \\/     M anipulation  |
\*---------------------------------------------------------------------------*/
FoamFile
{
    format      ascii;
    class       volScalarField;
    location    "480";
    object      omega;
}
// * * * * * * * * * * * * * * * * * * * * * * * * * * * * * * * * * * * * * //

dimensions      [0 0 -1 0 0 0 0];

internalField   nonuniform List<scalar> 
16227
(
9.34702
9.34704
9.34704
9.34707
9.34706
9.3471
9.34709
9.34708
9.34707
9.34709
9.34713
9.34715
9.3472
9.3472
9.3472
9.3472
9.3472
9.3472
9.3472
9.3472
9.3472
9.3472
9.3472
9.3472
9.3472
9.3472
9.3472
9.34722
9.34722
9.3472
9.34721
9.3472
9.3472
9.3472
9.34721
9.3472
9.3472
9.3472
9.3472
9.3472
9.3472
9.3472
9.3472
9.3472
9.3472
9.3472
9.3472
9.34719
9.34717
9.34717
9.34717
9.34716
9.3471
9.3471
9.34706
9.34705
9.34707
9.34705
9.34703
9.34702
8.71805
8.71807
8.71807
8.7181
8.7181
8.71814
8.71813
8.7181
8.71811
8.71812
8.71817
8.71819
8.71833
8.71839
8.7184
8.7184
8.7184
8.7184
8.7184
8.7184
8.71841
8.71843
8.71843
8.71843
8.71843
8.71843
8.71843
8.71842
8.7184
8.71836
8.71841
8.71842
8.71843
8.71843
8.71842
8.71841
8.7184
8.7184
8.7184
8.7184
8.7184
8.7184
8.71841
8.71839
8.71839
8.71838
8.71838
8.71838
8.71838
8.71837
8.71834
8.71829
8.71818
8.71817
8.71813
8.71811
8.71815
8.71807
8.71808
8.71806
8.16619
8.16621
8.16621
8.16623
8.16622
8.16631
8.16627
8.16625
8.16626
8.16627
8.16632
8.16633
8.16658
8.16664
8.16665
8.16666
8.16665
8.16665
8.16667
8.16662
8.16666
8.16666
8.16666
8.16666
8.16666
8.16666
8.16665
8.16666
8.16665
8.16658
8.16664
8.16665
8.16665
8.16665
8.16666
8.16666
8.16666
8.16665
8.16664
8.16665
8.16665
8.16665
8.16664
8.16663
8.16664
8.16664
8.16663
8.16663
8.16663
8.1666
8.16657
8.16638
8.16631
8.16629
8.16628
8.16627
8.1663
8.16621
8.16622
8.1662
7.67831
7.67832
7.67833
7.67834
7.67835
7.67841
7.67842
7.67838
7.67839
7.67839
7.67843
7.67849
7.67875
7.67882
7.67883
7.67885
7.67885
7.67887
7.67881
7.67868
7.67879
7.67883
7.67882
7.67882
7.67883
7.67882
7.67881
7.67881
7.67878
7.6787
7.67877
7.67879
7.67878
7.67879
7.67879
7.6788
7.6788
7.6788
7.67881
7.6788
7.67881
7.67881
7.67881
7.67882
7.67881
7.67881
7.67882
7.67881
7.67882
7.67879
7.67868
7.6785
7.6784
7.67842
7.67842
7.67844
7.67841
7.67834
7.67835
7.67833
7.24407
7.24409
7.24409
7.24411
7.24412
7.24417
7.2442
7.24414
7.24416
7.24416
7.2442
7.24426
7.2445
7.24463
7.24465
7.24464
7.24465
7.24463
7.24442
7.24435
7.24453
7.24459
7.24459
7.24457
7.24456
7.24454
7.24453
7.24452
7.24449
7.24439
7.24447
7.24449
7.2445
7.2445
7.24449
7.2445
7.24451
7.24453
7.24453
7.24454
7.24456
7.24457
7.24457
7.24458
7.24458
7.2446
7.2446
7.24461
7.24461
7.24454
7.24431
7.2442
7.24413
7.24416
7.24419
7.24423
7.24417
7.2441
7.24411
7.24409
6.85524
6.85526
6.85526
6.85527
6.85528
6.85533
6.85537
6.85532
6.8553
6.8553
6.85532
6.85535
6.85547
6.85575
6.85581
6.85583
6.85582
6.85572
6.85549
6.85545
6.85565
6.8557
6.85568
6.85565
6.85563
6.85562
6.85559
6.85556
6.85552
6.85542
6.85549
6.85551
6.85551
6.85552
6.85553
6.85554
6.85556
6.85557
6.85559
6.8556
6.85562
6.85564
6.85566
6.85569
6.8557
6.85572
6.85573
6.85575
6.85575
6.85563
6.8554
6.8553
6.85527
6.85532
6.85537
6.85536
6.85531
6.85525
6.85526
6.85524
6.50515
6.50517
6.50516
6.50518
6.50518
6.50522
6.50527
6.50525
6.50522
6.50521
6.5052
6.50521
6.50531
6.50557
6.5057
6.50572
6.50569
6.5054
6.50527
6.50527
6.50547
6.5055
6.50547
6.50543
6.50539
6.50535
6.50531
6.50528
6.50523
6.5051
6.50518
6.5052
6.50519
6.5052
6.50522
6.50523
6.50525
6.50528
6.50531
6.50535
6.50538
6.50542
6.50545
6.50548
6.50552
6.50554
6.50557
6.50559
6.50554
6.5053
6.50518
6.50511
6.50513
6.50521
6.50523
6.50523
6.50519
6.50513
6.50515
6.50513
6.18838
6.18839
6.18839
6.18841
6.1884
6.18844
6.18848
6.18848
6.18844
6.18841
6.1884
6.18836
6.18841
6.18854
6.18883
6.18891
6.18884
6.1885
6.18839
6.18837
6.18857
6.18859
6.18853
6.18847
6.1884
6.18835
6.1883
6.18824
6.18817
6.18803
6.18811
6.18812
6.18812
6.18813
6.18814
6.18817
6.1882
6.18824
6.18829
6.18834
6.1884
6.18844
6.18849
6.18854
6.1886
6.18863
6.18868
6.1887
6.1886
6.18837
6.18827
6.18825
6.18832
6.18837
6.18838
6.18839
6.18836
6.18832
6.18833
6.18831
5.90046
5.90046
5.90047
5.90047
5.90048
5.9005
5.90054
5.90053
5.90053
5.90048
5.90044
5.90039
5.90041
5.90051
5.90084
5.90093
5.90077
5.90045
5.90034
5.9003
5.90049
5.90048
5.90039
5.9003
5.90022
5.90014
5.90006
5.89998
5.8999
5.89973
5.8998
5.8998
5.89981
5.89982
5.89984
5.89987
5.89992
5.89998
5.90004
5.9001
5.90018
5.90026
5.90032
5.90039
5.90046
5.90054
5.90059
5.90056
5.90033
5.90024
5.90019
5.90025
5.90029
5.90035
5.90037
5.90039
5.90037
5.90033
5.90034
5.90034
5.63767
5.63768
5.63767
5.63769
5.63768
5.6377
5.63774
5.63772
5.63771
5.6377
5.63764
5.63757
5.63758
5.63768
5.63794
5.63802
5.6377
5.63749
5.63739
5.63735
5.6375
5.63747
5.63736
5.63724
5.63712
5.63701
5.6369
5.6368
5.63668
5.63651
5.63656
5.63656
5.63655
5.63657
5.63659
5.63664
5.6367
5.63678
5.63687
5.63695
5.63704
5.63714
5.63725
5.63735
5.63744
5.63753
5.6376
5.63755
5.63732
5.63726
5.63729
5.63734
5.63739
5.63746
5.63749
5.63752
5.6375
5.63748
5.63749
5.63749
5.39692
5.39692
5.39692
5.39692
5.39693
5.39694
5.39697
5.39695
5.39693
5.39691
5.39688
5.39678
5.39673
5.39677
5.39687
5.39707
5.39677
5.39659
5.39648
5.3964
5.39647
5.39645
5.39631
5.39616
5.396
5.39585
5.39571
5.39558
5.39544
5.39524
5.39527
5.39527
5.39526
5.39527
5.39531
5.39537
5.39545
5.39554
5.39565
5.39578
5.39589
5.39602
5.39615
5.39628
5.3964
5.3965
5.39651
5.39643
5.39633
5.39631
5.39636
5.39643
5.3965
5.39658
5.39662
5.39666
5.39665
5.39663
5.39665
5.39665
5.17557
5.17557
5.17557
5.17558
5.17557
5.1756
5.1756
5.1756
5.17557
5.17554
5.1755
5.17542
5.17533
5.17532
5.17537
5.17552
5.17528
5.1751
5.17494
5.17482
5.17472
5.17477
5.17464
5.17444
5.17424
5.17405
5.17388
5.17371
5.17354
5.17331
5.17334
5.17331
5.1733
5.17331
5.17336
5.17344
5.17353
5.17366
5.17379
5.17394
5.1741
5.17425
5.17442
5.17458
5.17472
5.17481
5.17475
5.17476
5.17476
5.17476
5.17484
5.17493
5.17501
5.1751
5.17515
5.1752
5.1752
5.17519
5.17521
5.17521
4.97141
4.97142
4.97142
4.97142
4.97142
4.97143
4.97144
4.97143
4.9714
4.97136
4.97132
4.97123
4.97114
4.97104
4.97101
4.97099
4.97093
4.97078
4.97059
4.97042
4.97025
4.97029
4.97013
4.96989
4.96964
4.9694
4.96918
4.96897
4.96876
4.96851
4.96851
4.96847
4.96845
4.96847
4.96853
4.96863
4.96874
4.96889
4.96907
4.96925
4.96944
4.96965
4.96984
4.97003
4.97019
4.97028
4.97025
4.97034
4.97034
4.97038
4.97048
4.97059
4.9707
4.97079
4.97086
4.97091
4.97093
4.97093
4.97095
4.97095
4.78255
4.78256
4.78255
4.78255
4.78255
4.78256
4.78256
4.78255
4.78252
4.78248
4.78242
4.78233
4.78224
4.78213
4.78201
4.78196
4.78192
4.78176
4.78154
4.78133
4.7811
4.7811
4.78088
4.78058
4.78028
4.77999
4.77971
4.77946
4.77921
4.77892
4.77889
4.77884
4.77882
4.77884
4.77891
4.77903
4.77918
4.77936
4.77957
4.7798
4.78003
4.78027
4.7805
4.78072
4.78085
4.78093
4.78104
4.78115
4.7812
4.78129
4.78141
4.78154
4.78166
4.78176
4.78185
4.78191
4.78193
4.78195
4.78197
4.78197
4.60734
4.60735
4.60734
4.60734
4.60734
4.60735
4.60735
4.60733
4.60731
4.60726
4.6072
4.6071
4.60699
4.60687
4.60675
4.60666
4.6066
4.6064
4.60614
4.60588
4.60561
4.60555
4.60527
4.60491
4.60455
4.60419
4.60385
4.60354
4.60324
4.60292
4.60287
4.6028
4.60277
4.6028
4.60289
4.60302
4.60321
4.60344
4.60368
4.60396
4.60423
4.60452
4.6048
4.60501
4.60509
4.60527
4.60545
4.6056
4.60571
4.60583
4.60599
4.60613
4.60626
4.60639
4.60648
4.60656
4.60659
4.60662
4.60664
4.60665
4.44438
4.44439
4.44438
4.44439
4.44438
4.44439
4.4444
4.44437
4.44434
4.44429
4.44422
4.44412
4.44401
4.44387
4.44373
4.44363
4.44352
4.4433
4.44299
4.44268
4.44237
4.44218
4.44188
4.44146
4.44102
4.4406
4.44019
4.43982
4.43946
4.4391
4.43901
4.43892
4.43889
4.43893
4.43903
4.4392
4.43943
4.4397
4.43999
4.44031
4.44064
4.44098
4.4413
4.44152
4.44166
4.44188
4.44211
4.44227
4.44242
4.4426
4.4428
4.44297
4.44312
4.44326
4.44337
4.44345
4.44349
4.44352
4.44356
4.44356
4.29245
4.29245
4.29245
4.29245
4.29245
4.29246
4.29246
4.29244
4.29241
4.29236
4.29229
4.29217
4.29206
4.29191
4.29175
4.29162
4.29149
4.29122
4.29089
4.2905
4.29011
4.28973
4.28947
4.28902
4.2885
4.28799
4.2875
4.28706
4.28664
4.28623
4.2861
4.28599
4.28595
4.286
4.28613
4.28634
4.28661
4.28692
4.28728
4.28766
4.28805
4.28843
4.28872
4.28896
4.28923
4.28952
4.2898
4.28999
4.29019
4.29042
4.29063
4.29083
4.29099
4.29115
4.29127
4.29137
4.29142
4.29146
4.2915
4.2915
4.15047
4.15047
4.15048
4.15048
4.15048
4.15049
4.15049
4.15047
4.15044
4.15039
4.15032
4.1502
4.15007
4.14992
4.14974
4.14958
4.14943
4.14914
4.14875
4.1483
4.14784
4.14734
4.14703
4.14651
4.14591
4.1453
4.14473
4.1442
4.1437
4.14323
4.14306
4.14293
4.14289
4.14295
4.14311
4.14336
4.14369
4.14406
4.14449
4.14493
4.14538
4.14578
4.14604
4.14639
4.14676
4.14713
4.14743
4.14768
4.14792
4.14818
4.14843
4.14864
4.14883
4.149
4.14914
4.14924
4.1493
4.14935
4.14939
4.14941
4.01752
4.01752
4.01752
4.01753
4.01753
4.01754
4.01755
4.01753
4.0175
4.01745
4.01738
4.01727
4.01713
4.01697
4.01677
4.01659
4.0164
4.01608
4.01566
4.01515
4.01461
4.01405
4.0136
4.01302
4.01232
4.01161
4.01092
4.0103
4.00972
4.00918
4.00896
4.00881
4.00876
4.00884
4.00904
4.00935
4.00973
4.01018
4.01067
4.01117
4.01169
4.01213
4.01246
4.01289
4.01334
4.01374
4.01406
4.01436
4.01468
4.01498
4.01525
4.01548
4.01569
4.01588
4.01603
4.01614
4.01621
4.01627
4.01631
4.01633
3.89277
3.89277
3.89278
3.89278
3.89278
3.89281
3.89282
3.8928
3.89277
3.89273
3.89266
3.89255
3.89241
3.89224
3.89204
3.89182
3.89159
3.89125
3.89078
3.89024
3.88961
3.88895
3.88827
3.88768
3.88691
3.88608
3.88528
3.88453
3.88386
3.88325
3.88297
3.88279
3.88275
3.88285
3.88309
3.88346
3.88392
3.88445
3.88499
3.88554
3.88609
3.88658
3.88708
3.88761
3.88812
3.88856
3.88893
3.88928
3.88965
3.88998
3.89028
3.89053
3.89076
3.89097
3.89113
3.89125
3.89133
3.89139
3.89144
3.89146
3.77549
3.77549
3.7755
3.77551
3.77552
3.77554
3.77556
3.77555
3.77553
3.77549
3.77543
3.77532
3.77518
3.77501
3.77478
3.77452
3.77425
3.77391
3.77343
3.77283
3.77213
3.77136
3.77055
3.76988
3.76898
3.76802
3.76707
3.76619
3.7654
3.76469
3.76436
3.76414
3.7641
3.76424
3.76455
3.76499
3.76553
3.76612
3.76675
3.76739
3.76796
3.76857
3.7692
3.76981
3.77037
3.77083
3.77127
3.7717
3.77211
3.77247
3.77279
3.77307
3.77332
3.77353
3.77371
3.77384
3.77393
3.774
3.77405
3.77407
3.66503
3.66504
3.66505
3.66507
3.66508
3.66511
3.66513
3.66513
3.66512
3.66509
3.66503
3.66494
3.66481
3.66463
3.6644
3.66412
3.66383
3.66348
3.66296
3.6623
3.66154
3.66068
3.65976
3.65892
3.65791
3.65678
3.65567
3.65463
3.6537
3.65289
3.65247
3.65222
3.65219
3.65237
3.65275
3.65328
3.6539
3.65458
3.65532
3.65607
3.65674
3.65746
3.65819
3.65887
3.65948
3.65999
3.66049
3.66097
3.66141
3.66181
3.66215
3.66245
3.66272
3.66295
3.66313
3.66327
3.66338
3.66345
3.6635
3.66352
3.56084
3.56085
3.56086
3.56088
3.5609
3.56094
3.56097
3.56098
3.56098
3.56096
3.56092
3.56083
3.56072
3.56055
3.56032
3.56004
3.55972
3.55934
3.5588
3.55811
3.55727
3.55632
3.55529
3.55422
3.5532
3.55189
3.55059
3.54936
3.54826
3.5473
3.54679
3.54652
3.54649
3.54673
3.54719
3.54783
3.54847
3.54926
3.55006
3.55093
3.55179
3.55264
3.55345
3.55418
3.55482
3.55542
3.55599
3.55652
3.557
3.55742
3.5578
3.55811
3.55839
3.55863
3.55882
3.55898
3.55909
3.55916
3.55922
3.55924
3.46239
3.4624
3.46242
3.46244
3.46247
3.46251
3.46255
3.46258
3.4626
3.46259
3.46256
3.46249
3.46239
3.46224
3.46203
3.46174
3.46138
3.46096
3.46044
3.45974
3.45885
3.45782
3.45668
3.45607
3.50225
3.5009
3.49946
3.4981
3.49688
3.49582
3.49525
3.49495
3.49493
3.49519
3.49571
3.4964
3.44911
3.44967
3.45063
3.45164
3.45264
3.4536
3.45449
3.45526
3.45597
3.45665
3.45729
3.45786
3.45837
3.45881
3.4592
3.45954
3.45983
3.46008
3.46028
3.46044
3.46056
3.46064
3.4607
3.46072
3.36922
3.36924
3.36926
3.36929
3.36933
3.36938
3.36943
3.36947
3.3695
3.36952
3.36951
3.36946
3.36938
3.36925
3.36906
3.36878
3.36842
3.36797
3.36743
3.36675
3.36585
3.36476
3.36412
3.40804
3.4048
3.4034
3.40169
3.40003
3.39853
3.39724
3.3965
3.39612
3.39609
3.39642
3.39704
3.39779
3.40049
3.3558
3.3566
3.35774
3.35886
3.35991
3.36086
3.3617
3.36248
3.36323
3.36391
3.36452
3.36505
3.36552
3.36593
3.36628
3.36658
3.36684
3.36705
3.36722
3.36733
3.36742
3.36748
3.36751
3.28093
3.28095
3.28098
3.28101
3.28106
3.28112
3.28119
3.28125
3.2813
3.28133
3.28135
3.28133
3.28128
3.28118
3.28102
3.28077
3.28043
3.27999
3.27945
3.27878
3.27788
3.27679
3.27659
3.3162
3.313
3.33371
3.3318
3.32986
3.32811
3.3266
3.32574
3.32528
3.32524
3.32561
3.32631
3.30473
3.3072
3.26684
3.26753
3.26879
3.27001
3.27114
3.27214
3.27307
3.27394
3.27474
3.27546
3.2761
3.27666
3.27715
3.27757
3.27793
3.27824
3.27851
3.27872
3.27889
3.27901
3.2791
3.27916
3.27919
3.19715
3.19716
3.1972
3.19724
3.1973
3.19737
3.19746
3.19753
3.1976
3.19766
3.19771
3.19772
3.1977
3.19764
3.19752
3.19732
3.19702
3.19661
3.19608
3.19542
3.19458
3.19359
3.19388
3.22951
3.2264
3.245
3.24279
3.24043
3.2383
3.23656
3.23548
3.23491
3.23485
3.23523
3.23583
3.21677
3.21872
3.18255
3.1831
3.18444
3.18574
3.18692
3.18802
3.18904
3.18998
3.19082
3.19157
3.19223
3.19281
3.19331
3.19375
3.19412
3.19443
3.1947
3.19492
3.19509
3.19521
3.1953
3.19537
3.19539
3.11753
3.11755
3.11759
3.11764
3.11771
3.1178
3.11789
3.11799
3.11809
3.11817
3.11825
3.1183
3.11832
3.11831
3.11824
3.11809
3.11786
3.11752
3.11704
3.11643
3.11567
3.11488
3.11572
3.14779
3.14482
3.16148
3.15889
3.15623
3.15385
3.15192
3.15069
3.14995
3.14973
3.1499
3.15039
3.13319
3.13497
3.1026
3.10298
3.10436
3.10573
3.107
3.10819
3.10929
3.11027
3.11115
3.11192
3.1126
3.11319
3.1137
3.11414
3.11451
3.11483
3.1151
3.11532
3.11549
3.11562
3.1157
3.11577
3.1158
3.04177
3.0418
3.04184
3.0419
3.04198
3.04208
3.0422
3.04232
3.04244
3.04256
3.04267
3.04276
3.04283
3.04287
3.04286
3.04279
3.04264
3.0424
3.04203
3.04153
3.04091
3.04043
3.04187
3.07078
3.06838
3.08344
3.08028
3.07814
3.07623
3.07459
3.07307
3.07164
3.07054
3.06996
3.07006
3.05401
3.05583
3.02669
3.02687
3.02828
3.02974
3.03111
3.03237
3.03351
3.03452
3.03541
3.0362
3.03689
3.03748
3.038
3.03844
3.03881
3.03913
3.0394
3.03962
3.03979
3.03991
3.03999
3.04006
3.04009
2.96961
2.96964
2.96969
2.96976
2.96985
2.96997
2.9701
2.97024
2.97039
2.97054
2.97069
2.97082
2.97094
2.97105
2.97111
2.97113
2.97108
2.97096
2.97075
2.97045
2.97008
2.97005
2.97211
2.99836
2.99737
3.01082
3.00847
3.00924
3.01132
3.01242
3.00992
3.00469
2.99965
2.99668
2.99538
2.9792
2.98118
2.95463
2.95463
2.95607
2.95757
2.95899
2.96028
2.96143
2.96246
2.96336
2.96415
2.96484
2.96543
2.96594
2.96638
2.96675
2.96706
2.96733
2.96754
2.96771
2.96782
2.96791
2.96797
2.968
2.90079
2.90083
2.90088
2.90096
2.90106
2.90119
2.90134
2.90151
2.90168
2.90187
2.90205
2.90223
2.90241
2.90258
2.90272
2.90284
2.90291
2.90295
2.90294
2.90291
2.90292
2.90356
2.90624
2.93035
2.93208
2.94455
2.94688
2.96055
2.98516
3.00567
2.99626
2.9674
2.94433
2.93251
2.92746
2.90944
2.91087
2.88629
2.88604
2.8875
2.88897
2.89039
2.89167
2.89282
2.89384
2.89473
2.89552
2.89619
2.89678
2.89728
2.89771
2.89807
2.89837
2.89863
2.89884
2.899
2.89911
2.8992
2.89925
2.89929
2.83509
2.83512
2.83518
2.83527
2.83538
2.83553
2.8357
2.83588
2.83609
2.8363
2.83653
2.83676
2.837
2.83723
2.83746
2.83768
2.83789
2.8381
2.83832
2.83863
2.83915
2.84065
2.84409
2.86685
2.87255
2.88603
2.90563
2.9738
3.15631
3.38148
3.28955
3.04996
2.92473
2.88184
2.86754
2.84551
2.84476
2.8217
2.82092
2.82231
2.8237
2.82507
2.82631
2.82744
2.82843
2.82931
2.83007
2.83073
2.8313
2.83179
2.8322
2.83255
2.83284
2.83309
2.83328
2.83344
2.83355
2.83363
2.83368
2.83371
2.77229
2.77233
2.77239
2.77249
2.77261
2.77277
2.77296
2.77317
2.7734
2.77365
2.77391
2.77419
2.77448
2.77479
2.7751
2.77543
2.77578
2.77617
2.77665
2.77733
2.77845
2.78092
2.78515
2.80775
2.81889
2.83793
2.90635
3.22112
4.46887
9.09235
7.28639
3.90227
2.99947
2.84845
2.81505
2.78835
2.78292
2.76066
2.75904
2.76027
2.76153
2.76281
2.764
2.76508
2.76603
2.76687
2.7676
2.76824
2.76878
2.76925
2.76964
2.76997
2.77025
2.77048
2.77067
2.77081
2.77091
2.77099
2.77104
2.77108
2.71221
2.71225
2.71232
2.71242
2.71256
2.71273
2.71293
2.71316
2.71342
2.7137
2.714
2.71432
2.71467
2.71504
2.71544
2.71587
2.71635
2.71693
2.71767
2.71873
2.72048
2.72391
2.72889
2.75244
2.77023
2.80144
2.96715
4.00921
14.3064
13.4261
3.25257
2.82582
2.76725
2.73733
2.72504
2.70311
2.70021
2.70115
2.70224
2.7034
2.7045
2.70551
2.70641
2.7072
2.7079
2.7085
2.70901
2.70945
2.70982
2.71013
2.71039
2.71061
2.71079
2.71092
2.71102
2.71109
2.71114
2.71118
2.65466
2.65471
2.65478
2.65489
2.65504
2.65523
2.65544
2.65569
2.65597
2.65628
2.65662
2.65698
2.65738
2.65781
2.65828
2.65881
2.65941
2.66015
2.66113
2.66255
2.66487
2.66911
2.67483
2.70006
2.72557
2.77061
3.05001
4.628
32.8691
60.6919
20.0218
3.53161
2.7993
2.72057
2.69132
2.67112
2.64902
2.6444
2.64485
2.64573
2.64674
2.64772
2.64863
2.64946
2.65019
2.65083
2.65139
2.65186
2.65227
2.65261
2.6529
2.65314
2.65334
2.6535
2.65362
2.65371
2.65377
2.65382
2.65386
2.59951
2.59955
2.59963
2.59975
2.5999
2.6001
2.60033
2.6006
2.6009
2.60123
2.6016
2.602
2.60244
2.60293
2.60346
2.60407
2.60478
2.60565
2.60681
2.6085
2.61131
2.61617
2.62298
2.65011
2.68403
2.74093
3.11675
4.75489
26.8742
11.7004
2.52628
18.7234
3.89022
2.78892
2.67803
2.64983
2.62111
2.59813
2.59142
2.59113
2.59176
2.59259
2.59343
2.59424
2.59498
2.59564
2.59622
2.59672
2.59716
2.59752
2.59783
2.59809
2.5983
2.59848
2.59862
2.59874
2.59881
2.59887
2.59891
2.59894
2.54658
2.54663
2.54672
2.54684
2.547
2.54721
2.54745
2.54773
2.54805
2.54841
2.5488
2.54924
2.54972
2.55024
2.55083
2.55149
2.55227
2.55322
2.55451
2.55636
2.55948
2.56481
2.57321
2.6023
2.64529
2.71603
3.14569
4.57724
13.349
12.4417
6.26344
6.44742
7.77265
2.89336
2.64756
2.61264
2.57493
2.55014
2.54105
2.53979
2.54014
2.54077
2.54147
2.54216
2.54281
2.54339
2.54391
2.54435
2.54473
2.54506
2.54533
2.54556
2.54574
2.5459
2.54602
2.54611
2.54618
2.54623
2.54626
2.54629
2.49576
2.49581
2.4959
2.49603
2.4962
2.49641
2.49667
2.49696
2.4973
2.49767
2.49809
2.49855
2.49905
2.49961
2.50023
2.50092
2.50173
2.50269
2.50402
2.50597
2.50928
2.51502
2.52549
2.55666
2.60884
2.70278
3.14238
4.36908
8.34248
12.002
7.65618
5.3887
10.0187
3.36417
2.63341
2.57678
2.53205
2.5045
2.493
2.49062
2.49068
2.49111
2.49167
2.49224
2.49279
2.49329
2.49373
2.49412
2.49445
2.49473
2.49496
2.49515
2.49531
2.49544
2.49554
2.49562
2.49567
2.49571
2.49574
2.49576
2.44692
2.44697
2.44706
2.44719
2.44737
2.44759
2.44786
2.44816
2.44851
2.4489
2.44934
2.44981
2.45034
2.45091
2.45153
2.4522
2.453
2.45401
2.45537
2.45734
2.46066
2.46672
2.47943
2.51316
2.57471
2.69607
3.1608
4.35869
6.84811
9.63671
10.2956
7.55104
8.49671
3.77929
2.63321
2.53786
2.49125
2.46056
2.44694
2.44342
2.44318
2.44343
2.44386
2.44433
2.44479
2.4452
2.44558
2.4459
2.44617
2.4464
2.4466
2.44675
2.44688
2.44698
2.44706
2.44712
2.44716
2.44719
2.44721
2.44724
2.39993
2.39999
2.40008
2.40022
2.4004
2.40062
2.4009
2.40121
2.40157
2.40197
2.40242
2.40291
2.40343
2.40397
2.40459
2.4053
2.40614
2.40717
2.40849
2.41042
2.4136
2.41985
2.43457
2.47138
2.54456
2.69165
3.43611
5.96322
9.53164
11.816
9.24283
4.52785
7.43687
3.84219
2.6346
2.49623
2.45146
2.41757
2.40249
2.39796
2.39743
2.39755
2.39788
2.39828
2.39866
2.399
2.39931
2.39957
2.39979
2.39997
2.40012
2.40024
2.40034
2.40041
2.40047
2.40051
2.40054
2.40055
2.40057
2.40059
2.35471
2.35477
2.35486
2.355
2.35518
2.35541
2.35569
2.35601
2.35638
2.35679
2.35724
2.35772
2.35823
2.35879
2.35944
2.36017
2.36102
2.36203
2.3633
2.36515
2.36816
2.37438
2.39051
2.43038
2.51247
2.79784
5.71643
9.15419
8.92406
7.07006
4.50988
3.43493
6.71077
3.74752
2.64432
2.45895
2.41206
2.37535
2.35943
2.35414
2.35342
2.35344
2.35367
2.35397
2.35429
2.35457
2.35481
2.35501
2.35518
2.35531
2.35542
2.35551
2.35557
2.35562
2.35565
2.35568
2.35569
2.35569
2.3557
2.35572
2.31114
2.3112
2.3113
2.31143
2.31162
2.31186
2.31214
2.31247
2.31283
2.31324
2.31366
2.31413
2.31467
2.31527
2.31594
2.31668
2.31751
2.3185
2.31973
2.3215
2.32438
2.3305
2.34742
2.39051
2.5007
3.34769
7.68232
7.6838
4.8965
3.44742
2.68915
3.33087
6.11351
3.59995
2.65712
2.43798
2.37306
2.33376
2.31766
2.31195
2.31098
2.31095
2.31113
2.31132
2.31154
2.31177
2.31197
2.31213
2.31225
2.31233
2.3124
2.31244
2.31247
2.3125
2.31251
2.31251
2.31251
2.3125
2.3125
2.31252
2.26914
2.2692
2.2693
2.26944
2.26963
2.26986
2.27015
2.27047
2.27084
2.27122
2.27165
2.27214
2.2727
2.27331
2.27398
2.27472
2.27555
2.27653
2.27772
2.27943
2.28223
2.2883
2.30557
2.35197
2.5557
4.12282
7.82665
5.78566
2.88253
2.16946
2.38808
3.75479
5.69505
3.50191
2.66332
2.44301
2.33434
2.29301
2.27712
2.27124
2.27013
2.26998
2.27012
2.27027
2.27042
2.27056
2.2707
2.27082
2.27089
2.27093
2.27095
2.27096
2.27096
2.27096
2.27095
2.27093
2.27091
2.27089
2.27089
2.2709
2.22863
2.22869
2.22878
2.22893
2.22911
2.22935
2.22963
2.22995
2.2303
2.23069
2.23114
2.23164
2.2322
2.23282
2.23349
2.23423
2.23506
2.23603
2.23721
2.23886
2.24171
2.24772
2.26524
2.31442
2.63898
4.6401
7.56179
4.87657
2.60138
2.16783
2.93164
4.70604
5.69776
3.58209
2.67868
2.47364
2.29583
2.25353
2.23795
2.23195
2.23078
2.23054
2.23057
2.23068
2.23077
2.23084
2.23091
2.23097
2.23101
2.23102
2.231
2.23098
2.23094
2.23091
2.23088
2.23084
2.23081
2.23078
2.23076
2.23078
2.18952
2.18958
2.18968
2.18982
2.19
2.19023
2.19049
2.1908
2.19116
2.19157
2.19203
2.19254
2.1931
2.19371
2.19439
2.19513
2.19596
2.19694
2.1981
2.19978
2.20266
2.20867
2.2266
2.27715
2.69312
4.87661
7.46992
4.79437
2.47899
2.49217
3.77448
5.5882
5.98697
4.28455
2.84565
2.50316
2.25932
2.21572
2.20033
2.19412
2.19284
2.19254
2.1925
2.19249
2.19249
2.1925
2.19254
2.19255
2.19253
2.19251
2.19246
2.1924
2.19234
2.19228
2.19222
2.19216
2.19212
2.19208
2.19206
2.19207
2.15174
2.1518
2.1519
2.15204
2.15222
2.15244
2.15269
2.15301
2.15338
2.15379
2.15425
2.15475
2.15531
2.15593
2.1566
2.15734
2.15817
2.15914
2.16029
2.16205
2.16495
2.17099
2.18962
2.24035
2.70486
4.96534
7.53003
5.26807
2.70373
2.07518
2.92194
5.05601
6.45902
5.39588
3.64919
2.51608
2.22792
2.17968
2.16435
2.15776
2.1563
2.1559
2.15578
2.15569
2.15562
2.15555
2.15548
2.15545
2.15539
2.15532
2.15525
2.15516
2.15506
2.15498
2.1549
2.15483
2.15476
2.15471
2.15469
2.15469
2.11523
2.11529
2.11539
2.11552
2.11569
2.1159
2.11617
2.11649
2.11685
2.11726
2.11772
2.11822
2.11878
2.11939
2.12006
2.1208
2.1216
2.12256
2.12375
2.12557
2.12847
2.13452
2.15399
2.20425
2.69499
4.96792
7.64687
5.90519
3.36602
2.15517
2.11897
3.12095
4.87762
5.76907
4.8005
2.63297
2.20142
2.14527
2.12994
2.12285
2.1211
2.12056
2.12035
2.12017
2.12002
2.11988
2.11974
2.11961
2.11951
2.1194
2.11928
2.11917
2.11905
2.11894
2.11884
2.11875
2.11868
2.11862
2.11858
2.11859
2.07992
2.07999
2.08007
2.0802
2.08037
2.08059
2.08086
2.08117
2.08153
2.08193
2.08239
2.08288
2.08343
2.08403
2.08469
2.08542
2.0862
2.08719
2.08839
2.09025
2.09313
2.09915
2.11937
2.16888
2.66767
4.92361
7.69534
6.51751
4.20161
2.6365
2.02411
2.09817
3.13748
5.17604
5.41761
2.85863
2.18018
2.11208
2.09691
2.08927
2.08718
2.08646
2.08613
2.08585
2.08562
2.08541
2.0852
2.085
2.08482
2.08467
2.08452
2.08438
2.08424
2.08411
2.08399
2.08388
2.08379
2.08373
2.08368
2.08368
2.04576
2.04582
2.0459
2.04602
2.04619
2.04641
2.04668
2.04699
2.04734
2.04774
2.04819
2.04867
2.04921
2.04981
2.05046
2.05116
2.05194
2.05293
2.05413
2.056
2.05887
2.06479
2.08546
2.13402
2.628
4.83722
7.56302
6.95337
5.02249
3.31246
2.25845
1.80604
2.409
4.57018
5.47953
3.07482
2.16367
2.07979
2.06499
2.0569
2.05444
2.05351
2.05306
2.05267
2.05235
2.05206
2.05179
2.05153
2.05129
2.05107
2.05089
2.05072
2.05056
2.05041
2.05027
2.05015
2.05005
2.04997
2.04992
2.04992
2.01269
2.01274
2.01282
2.01294
2.01311
2.01333
2.01359
2.01389
2.01424
2.01463
2.01507
2.01554
2.01607
2.01665
2.01728
2.01796
2.01874
2.01973
2.02091
2.02276
2.02561
2.0314
2.05205
2.09961
2.58125
4.69193
7.2391
7.10439
5.65737
3.91817
2.56687
1.87278
2.24591
4.24491
5.33758
3.21533
2.14696
2.04823
2.03396
2.02556
2.02277
2.02164
2.02105
2.02056
2.02015
2.01979
2.01945
2.01914
2.01885
2.01858
2.01834
2.01814
2.01795
2.01778
2.01764
2.01751
2.01739
2.0173
2.01725
2.01724
1.98065
1.9807
1.98078
1.9809
1.98107
1.98128
1.98154
1.98184
1.98217
1.98256
1.98298
1.98345
1.98396
1.98452
1.98513
1.98578
1.98656
1.98753
1.98868
1.99049
1.99331
1.99895
2.01911
2.06552
2.53289
4.54031
6.83314
7.02213
5.93169
4.1763
2.77747
1.92394
2.27492
4.18993
5.17158
3.27502
2.12543
2.01738
2.00368
1.99515
1.99207
1.99077
1.99005
1.98945
1.98896
1.98852
1.98812
1.98776
1.98742
1.98711
1.98683
1.98658
1.98638
1.98619
1.98602
1.98589
1.98576
1.98567
1.9856
1.9856
1.9496
1.94965
1.94973
1.94985
1.95002
1.95022
1.95047
1.95076
1.95109
1.95146
1.95188
1.95233
1.95282
1.95336
1.95393
1.95459
1.95534
1.95628
1.9574
1.95915
1.96193
1.96739
1.98675
2.03184
2.4863
4.40983
6.48947
6.85379
5.78294
4.13455
2.67744
1.95113
2.58098
4.40598
5.04746
3.2749
2.09922
1.98727
1.97407
1.96555
1.96227
1.96082
1.95999
1.95929
1.95872
1.95821
1.95776
1.95734
1.95696
1.95662
1.9563
1.95601
1.95577
1.95557
1.9554
1.95524
1.95511
1.95501
1.95494
1.95493
1.9195
1.91955
1.91963
1.91975
1.91991
1.92011
1.92035
1.92063
1.92095
1.92131
1.92171
1.92215
1.92262
1.92312
1.92368
1.92433
1.92506
1.92596
1.92704
1.92871
1.93143
1.93672
1.95511
1.99883
2.4455
4.30194
6.31968
6.6014
5.43144
3.80125
2.4859
2.16408
3.13369
4.92024
5.03899
3.23477
2.07251
1.95796
1.94514
1.93673
1.9333
1.93174
1.9308
1.93002
1.92938
1.92881
1.9283
1.92784
1.92742
1.92704
1.9267
1.92639
1.92611
1.92588
1.92569
1.92553
1.92539
1.92528
1.92521
1.9252
1.8903
1.89036
1.89043
1.89054
1.8907
1.8909
1.89113
1.89141
1.89172
1.89206
1.89245
1.89287
1.89332
1.89379
1.89434
1.89496
1.89566
1.89651
1.89755
1.89915
1.90181
1.90689
1.92435
1.96675
2.40947
4.20334
6.34346
6.20538
4.95574
3.39386
2.40654
2.50003
3.79971
5.58182
5.1048
3.17587
2.04572
1.92937
1.91689
1.90865
1.90511
1.90347
1.90245
1.9016
1.90089
1.90027
1.89971
1.89921
1.89876
1.89835
1.89797
1.89764
1.89734
1.89708
1.89687
1.8967
1.89656
1.89645
1.89637
1.89636
1.86197
1.86202
1.86209
1.86221
1.86236
1.86255
1.86278
1.86304
1.86334
1.86368
1.86405
1.86445
1.86487
1.86533
1.86587
1.86645
1.86712
1.86793
1.86892
1.87044
1.87302
1.87791
1.89457
1.93579
2.37924
4.10863
6.42016
5.73206
4.44017
3.07512
2.4535
2.91456
4.46155
6.12672
5.13627
3.11083
2.01935
1.90147
1.8893
1.88127
1.87767
1.87597
1.87488
1.87397
1.87321
1.87254
1.87195
1.87141
1.87092
1.87048
1.87009
1.86973
1.86941
1.86914
1.86891
1.86872
1.86857
1.86846
1.86839
1.86837
1.83447
1.83451
1.83458
1.83469
1.83484
1.83502
1.83525
1.8355
1.83579
1.83612
1.83647
1.83685
1.83725
1.83771
1.83822
1.83877
1.8394
1.84017
1.84112
1.84257
1.84507
1.84975
1.86582
1.90603
2.35497
4.31241
6.35972
4.91153
3.62004
2.64161
2.50224
3.35987
4.99066
6.23201
4.7244
3.04474
1.99355
1.87424
1.86237
1.85458
1.85094
1.8492
1.84806
1.8471
1.8463
1.8456
1.84496
1.8444
1.84388
1.84342
1.843
1.84262
1.84229
1.84201
1.84176
1.84155
1.84139
1.84128
1.84121
1.84119
1.80775
1.8078
1.80787
1.80797
1.80811
1.80829
1.80851
1.80875
1.80903
1.80935
1.80969
1.81004
1.81043
1.81087
1.81136
1.81188
1.81248
1.81321
1.81412
1.8155
1.81793
1.82241
1.83825
1.90428
2.33631
4.2817
6.10646
4.41637
3.14124
2.37004
2.40038
3.29645
4.82961
5.95187
4.56634
2.97875
1.90942
1.84764
1.83609
1.82852
1.82488
1.82313
1.82195
1.82096
1.82013
1.81939
1.81873
1.81814
1.8176
1.81711
1.81667
1.81628
1.81594
1.81564
1.81538
1.81517
1.815
1.81487
1.8148
1.81478
1.78179
1.78184
1.78191
1.78201
1.78215
1.78232
1.78253
1.78277
1.78304
1.78334
1.78366
1.784
1.78438
1.7848
1.78526
1.78577
1.78634
1.78703
1.7879
1.78922
1.79158
1.79592
1.81186
1.88587
2.76789
4.71862
5.29256
3.44873
2.39048
2.02419
2.35875
3.34443
4.65308
5.21295
3.91689
2.61497
1.88536
1.82168
1.81044
1.8031
1.79948
1.79773
1.79652
1.79552
1.79465
1.79389
1.79321
1.79259
1.79204
1.79153
1.79108
1.79068
1.79032
1.79001
1.78974
1.78952
1.78934
1.78921
1.78914
1.78912
1.75657
1.75661
1.75667
1.75677
1.75691
1.75707
1.75728
1.75751
1.75777
1.75805
1.75835
1.75869
1.75906
1.75946
1.75991
1.76038
1.76093
1.76159
1.76243
1.7637
1.766
1.77024
1.78645
1.86958
2.76633
4.60541
4.96025
3.04947
2.03558
1.74217
2.06957
2.9767
4.24972
4.93415
3.80322
2.56138
1.86141
1.79635
1.78542
1.7783
1.77472
1.77298
1.77176
1.77073
1.76985
1.76907
1.76838
1.76774
1.76717
1.76665
1.76618
1.76577
1.7654
1.76508
1.76481
1.76458
1.7644
1.76426
1.76418
1.76416
1.73203
1.73208
1.73214
1.73224
1.73236
1.73253
1.73272
1.73295
1.7332
1.73347
1.73376
1.73409
1.73445
1.73483
1.73526
1.73571
1.73624
1.73687
1.73767
1.73891
1.74114
1.74534
1.76196
1.85439
2.76119
4.48788
4.65773
2.70991
1.74178
1.50599
1.82286
2.6617
3.90134
4.68444
3.6961
2.50962
1.83769
1.77161
1.76099
1.75408
1.75056
1.74885
1.74762
1.74659
1.7457
1.74491
1.74419
1.74355
1.74296
1.74243
1.74196
1.74153
1.74115
1.74083
1.74055
1.74032
1.74013
1.73999
1.7399
1.73988
1.70817
1.70821
1.70827
1.70837
1.70849
1.70865
1.70884
1.70906
1.7093
1.70955
1.70984
1.71016
1.71051
1.71088
1.71129
1.71172
1.71223
1.71284
1.71362
1.71481
1.717
1.72117
1.7383
1.83987
2.75219
4.36884
4.38195
2.42081
1.4981
1.30838
1.61294
2.39134
3.5985
4.46004
3.595
2.45979
1.81436
1.74747
1.73715
1.73045
1.72701
1.72532
1.72409
1.72306
1.72216
1.72136
1.72064
1.71999
1.71939
1.71886
1.71837
1.71794
1.71755
1.71722
1.71694
1.7167
1.71651
1.71636
1.71627
1.71624
1.68495
1.68499
1.68505
1.68514
1.68526
1.68542
1.6856
1.68581
1.68605
1.68629
1.68657
1.68688
1.68722
1.68758
1.68797
1.68839
1.68888
1.68947
1.69023
1.6914
1.69353
1.69771
1.7154
1.82568
2.73965
4.25005
4.12989
2.17437
1.29563
1.14286
1.43442
2.1588
3.33374
4.25748
3.49945
2.41184
1.79145
1.7239
1.71388
1.70739
1.70403
1.70237
1.70114
1.70013
1.69922
1.69842
1.69769
1.69703
1.69643
1.69589
1.6954
1.69496
1.69457
1.69423
1.69394
1.6937
1.69351
1.69336
1.69327
1.69323
1.66235
1.66239
1.66245
1.66254
1.66266
1.66281
1.66299
1.66319