/*--------------------------------*- C++ -*----------------------------------*\
  =========                 |
  \\      /  F ield         | OpenFOAM: The Open Source CFD Toolbox
   \\    /   O peration     | Website:  https://openfoam.org
    \\  /    A nd           | Version:  12
     \\/     M anipulation  |
\*---------------------------------------------------------------------------*/
FoamFile
{
    format      ascii;
    class       volScalarField;
    location    "480";
    object      p;
}
// * * * * * * * * * * * * * * * * * * * * * * * * * * * * * * * * * * * * * //

dimensions      [0 2 -2 0 0 0 0];

internalField   nonuniform List<scalar> 
16227
(
0.0659982
0.066096
0.0662909
0.0665825
0.0669699
0.067452
0.0680271
0.0686933
0.0694479
0.0702877
0.0712089
0.0722066
0.0732753
0.0744091
0.0756007
0.0768418
0.0781235
0.0794353
0.0807661
0.0821039
0.0834356
0.084748
0.086027
0.0872587
0.0884291
0.0895248
0.0905329
0.091442
0.0922416
0.0929232
0.0934802
0.0939081
0.0942046
0.0943696
0.0944053
0.0943161
0.0941083
0.0937899
0.0933705
0.0928608
0.0922727
0.0916185
0.0909111
0.0901634
0.0893882
0.088598
0.0878049
0.0870204
0.0862552
0.0855194
0.084822
0.0841714
0.0835749
0.083039
0.0825694
0.0821709
0.0818475
0.0816024
0.0814377
0.0813549
0.0659262
0.0660241
0.0662194
0.0665117
0.0669
0.0673832
0.0679598
0.0686279
0.0693848
0.0702273
0.0711518
0.0721536
0.073227
0.0743661
0.0755637
0.0768117
0.0781008
0.0794209
0.0807606
0.0821079
0.0834496
0.0847721
0.0860615
0.0873035
0.0884839
0.0895889
0.0906057
0.0915224
0.0923284
0.0930151
0.0935755
0.0940051
0.0943017
0.0944651
0.0944976
0.0944038
0.09419
0.0938645
0.0934371
0.0929187
0.0923215
0.0916579
0.0909409
0.0901837
0.0893993
0.0886002
0.0877987
0.0870062
0.0862337
0.0854911
0.0847876
0.0841315
0.0835302
0.0829902
0.0825171
0.0821157
0.08179
0.0815431
0.0813773
0.081294
0.0657656
0.0658639
0.0660602
0.0663538
0.0667441
0.0672299
0.0678098
0.068482
0.0692439
0.0700925
0.0710242
0.072035
0.0731188
0.0742697
0.0754806
0.0767436
0.0780494
0.0793877
0.0807473
0.0821157
0.0834795
0.0848248
0.0861373
0.0874021
0.0886048
0.0897309
0.0907669
0.0917006
0.0925209
0.0932188
0.0937869
0.0942205
0.0945172
0.0946772
0.0947028
0.0945987
0.0943718
0.0940307
0.0935857
0.0930482
0.0924306
0.0917462
0.0910081
0.09023
0.089425
0.0886062
0.087786
0.086976
0.0861872
0.0854296
0.0847126
0.0840444
0.0834325
0.0828832
0.0824023
0.0819945
0.0816637
0.081413
0.0812447
0.0811601
0.0654938
0.0655928
0.0657906
0.0660866
0.06648
0.0669701
0.0675554
0.0682343
0.0690046
0.0698634
0.0708072
0.0718327
0.0729337
0.0741043
0.0753376
0.0766258
0.0779595
0.0793286
0.0807215
0.0821259
0.0835272
0.0849113
0.0862631
0.0875671
0.0888077
0.0899698
0.0910389
0.0920017
0.0928466
0.0935637
0.0941451
0.0945857
0.094883
0.0950372
0.0950511
0.0949298
0.0946807
0.0943132
0.0938383
0.0932683
0.0926165
0.0918966
0.0911229
0.0903093
0.0894698
0.0886177
0.0877658
0.0869262
0.08611
0.0853273
0.0845875
0.0838989
0.0832691
0.0827044
0.0822103
0.0817917
0.0814523
0.0811952
0.0810226
0.080936
0.0651174
0.0652174
0.0654171
0.0657162
0.0661139
0.0666096
0.0672021
0.0678902
0.0686718
0.0695443
0.0705047
0.0715502
0.0726748
0.0738725
0.0751366
0.0764595
0.0778321
0.0792437
0.0806831
0.0821378
0.083592
0.0850307
0.0864379
0.0877971
0.0890916
0.0903047
0.0914207
0.0924249
0.0933045
0.0940488
0.0946489
0.0950993
0.0953972
0.0955432
0.0955402
0.0953942
0.0951134
0.0947083
0.094191
0.0935749
0.0928745
0.0921048
0.0912807
0.0904173
0.0895293
0.0886307
0.0877347
0.0868538
0.0859993
0.0851817
0.0844103
0.0836937
0.083039
0.0824529
0.0819408
0.0815072
0.081156
0.0808901
0.0807117
0.0806222
0.0646447
0.0647459
0.064948
0.0652507
0.0656535
0.066156
0.0667572
0.0674563
0.0682518
0.0691412
0.0701219
0.0711915
0.0723456
0.0735772
0.07488
0.0762468
0.0776684
0.079134
0.0806327
0.0821514
0.0836733
0.0851824
0.0866611
0.0880918
0.089456
0.0907352
0.0919121
0.09297
0.0938947
0.0946741
0.0952981
0.0957607
0.0960589
0.0961934
0.0961678
0.0959888
0.0956661
0.0952114
0.0946385
0.0939622
0.0931987
0.0923642
0.0914752
0.0905477
0.0895975
0.0886393
0.0876871
0.0867537
0.0858509
0.0849891
0.084178
0.0834258
0.0827402
0.0821274
0.0815926
0.0811404
0.0807745
0.0804976
0.080312
0.0802189
0.064075
0.0641775
0.0643821
0.0646889
0.0650974
0.0656076
0.0662188
0.0669306
0.0677418
0.068651
0.0696555
0.0707532
0.0719418
0.0732141
0.0745634
0.0759829
0.0774637
0.0789955
0.0805669
0.0821643
0.0837697
0.0853658
0.0869335
0.0884534
0.0899048
0.0912671
0.0925204
0.0936459
0.0946271
0.0954503
0.0961041
0.0965814
0.0968792
0.0969982
0.0969431
0.0967218
0.0963455
0.0958277
0.0951844
0.0944324
0.0935896
0.0926743
0.0917044
0.0906976
0.0896707
0.0886394
0.0876185
0.0866212
0.0856597
0.0847445
0.0838854
0.0830908
0.082368
0.0817231
0.0811613
0.080687
0.0803036
0.0800137
0.0798195
0.079722
0.0634037
0.0635075
0.0637149
0.0640259
0.0644405
0.064959
0.0655811
0.0663066
0.0671353
0.0680664
0.0690978
0.0702276
0.0714548
0.0727742
0.0741779
0.0756593
0.0772096
0.0788201
0.0804785
0.0821704
0.0838768
0.0855785
0.0872549
0.0888842
0.090443
0.0919079
0.0932557
0.0944649
0.0955162
0.0963936
0.097084
0.097579
0.0978753
0.0979744
0.0978818
0.0976071
0.0971636
0.0965674
0.0958367
0.0949913
0.0940513
0.0930372
0.0919691
0.0908663
0.089747
0.0886283
0.0875254
0.0864522
0.0854211
0.084443
0.0835276
0.0826834
0.0819172
0.0812351
0.0806421
0.0801421
0.0797384
0.0794335
0.0792294
0.079127
0.0626277
0.0627328
0.0629428
0.063258
0.0636786
0.0642054
0.0648387
0.0655787
0.0664259
0.0673803
0.0684412
0.0696065
0.0708758
0.0722476
0.0737131
0.0752655
0.0768965
0.0785983
0.0803581
0.0821617
0.0839881
0.0858163
0.0876236
0.0893853
0.0910748
0.0926648
0.0941285
0.0954404
0.0965779
0.0975218
0.0982568
0.098773
0.0990669
0.0991406
0.099001
0.09866
0.0981336
0.097441
0.0966037
0.0956446
0.0945871
0.0934543
0.0922688
0.091052
0.0898236
0.088602
0.0874032
0.0862417
0.08513
0.0840795
0.0830994
0.0821984
0.0813829
0.0806586
0.0800301
0.0795011
0.0790745
0.0787527
0.0785375
0.0784296
0.0617456
0.0618518
0.0620641
0.0623831
0.0628093
0.0633439
0.063988
0.0647424
0.0656083
0.0665868
0.0676783
0.0688818
0.0701971
0.0716255
0.073159
0.0747901
0.0765128
0.0783189
0.0801959
0.0821292
0.0840965
0.0860743
0.0880374
0.0899578
0.0918048
0.0935465
0.0951511
0.0965883
0.0978308
0.0988557
0.0996447
0.100186
0.100476
0.100518
0.10032
0.0998967
0.0992687
0.0984586
0.0974923
0.0963965
0.0951984
0.0939247
0.0926007
0.0912502
0.0898948
0.088554
0.0872449
0.0859823
0.084779
0.0836461
0.0825937
0.081629
0.0807584
0.0799872
0.0793193
0.0787581
0.0783064
0.0779661
0.0777385
0.0776246
0.0607567
0.0608637
0.0610778
0.0613999
0.0618308
0.0623722
0.063026
0.0637939
0.0646779
0.0656801
0.0668022
0.0680452
0.0694088
0.0708965
0.0725037
0.0742212
0.0760457
0.0779696
0.0799798
0.0820623
0.0841933
0.0863464
0.0884936
0.0906031
0.092639
0.0945636
0.0963388
0.097928
0.0992981
0.100421
0.101275
0.101846
0.10213
0.102131
0.10186
0.101336
0.100584
0.0996311
0.0985092
0.09725
0.0958852
0.0944454
0.0929594
0.0914538
0.0899521
0.088475
0.0870406
0.0856639
0.0843582
0.0831338
0.0820009
0.0809661
0.0800351
0.0792126
0.0785019
0.077906
0.0774271
0.0770666
0.076826
0.0767054
0.0596606
0.0597681
0.0599831
0.0603071
0.0607412
0.0612878
0.0619494
0.0627288
0.0636291
0.0646535
0.0658053
0.0670873
0.0685005
0.0700487
0.0717338
0.0735455
0.0754815
0.0775355
0.0796952
0.0819466
0.0842666
0.0866243
0.0889881
0.0913219
0.0935836
0.0957283
0.0977098
0.0994835
0.101009
0.102251
0.103183
0.103788
0.104062
0.10401
0.103649
0.103
0.102096
0.10097
0.0996616
0.0982076
0.0966456
0.0950113
0.0933375
0.0916534
0.0899847
0.0883534
0.0867781
0.0852744
0.0838551
0.0825307
0.0813102
0.0801993
0.0792032
0.0783256
0.0775693
0.0769364
0.0764287
0.076047
0.0757924
0.075665
0.0584568
0.0585641
0.0587791
0.0591033
0.0595386
0.0600878
0.0607544
0.0615423
0.0624557
0.0634995
0.0646784
0.0659974
0.0674596
0.0690694
0.0708332
0.0727448
0.0748011
0.0769977
0.0793234
0.0817642
0.0843
0.086895
0.0895133
0.0921127
0.0946443
0.097054
0.0992855
0.101283
0.102997
0.104384
0.105409
0.106054
0.106313
0.106194
0.105718
0.104916
0.103825
0.10249
0.100957
0.0992709
0.0974768
0.0956159
0.0937251
0.091837
0.0899794
0.0881752
0.0864435
0.0847997
0.083257
0.0818242
0.0805093
0.0793174
0.0782523
0.0773166
0.0765124
0.075841
0.0753033
0.0748996
0.0746306
0.074496
0.0571448
0.0572514
0.0574648
0.0577872
0.0582208
0.0587693
0.059437
0.0602291
0.061151
0.0622094
0.063411
0.064763
0.0662714
0.0679418
0.0697831
0.0717972
0.0739808
0.0763316
0.0788402
0.0814937
0.0842739
0.0871422
0.0900575
0.0929713
0.0958257
0.0985552
0.10109
0.103362
0.105306
0.106868
0.108007
0.108696
0.108932
0.108727
0.108107
0.107113
0.105794
0.104205
0.102401
0.10044
0.0983734
0.0962493
0.0941097
0.0919902
0.0899204
0.0879241
0.0860207
0.0842251
0.082549
0.0810002
0.0795856
0.0783085
0.0771713
0.0761755
0.075322
0.0746112
0.0740429
0.0736169
0.0733333
0.0731915
0.0557251
0.0558299
0.0560401
0.056358
0.0567865
0.05733
0.0579937
0.0587841
0.0597083
0.0607746
0.061992
0.0633704
0.0649191
0.0666463
0.0685634
0.0706793
0.0729937
0.0755075
0.0782147
0.0811044
0.0841603
0.0873419
0.0906033
0.0938889
0.0971302
0.100247
0.103153
0.10576
0.107987
0.109765
0.111039
0.11178
0.111983
0.111665
0.110863
0.109629
0.108028
0.106129
0.104001
0.101712
0.0993264
0.0968979
0.0944742
0.0920937
0.0897874
0.0875797
0.0854898
0.0835315
0.0817136
0.0800429
0.0785244
0.0771593
0.0759483
0.0748915
0.0739884
0.0732381
0.0726393
0.0721913
0.0718932
0.0717442
0.0541988
0.0543009
0.0545057
0.0548158
0.055235
0.0557681
0.0564215
0.0572029
0.0581212
0.0591864
0.0604102
0.0618052
0.0633847
0.0651608
0.0671481
0.0693617
0.0718071
0.0744894
0.0774082
0.0805562
0.0839205
0.0874607
0.091125
0.0948507
0.0985568
0.102145
0.105506
0.108528
0.111106
0.113149
0.114588
0.115386
0.115539
0.115073
0.114038
0.112505
0.110555
0.108276
0.105757
0.103081
0.100321
0.0975418
0.0947954
0.0921226
0.0895554
0.0871177
0.0848283
0.0826972
0.0807309
0.0789344
0.0773096
0.0758554
0.0745706
0.0734533
0.0725014
0.0717125
0.0710842
0.0706148
0.0703029
0.0701471
0.0525684
0.0526665
0.0528633
0.053162
0.0535668
0.0540833
0.0547186
0.0554821
0.0563841
0.0574369
0.0586545
0.0600531
0.0616498
0.0634618
0.0655082
0.0678108
0.0703823
0.0732341
0.0763738
0.0797994
0.0835034
0.0874517
0.091585
0.0958326
0.100099
0.104264
0.108189
0.111728
0.114742
0.117115
0.118756
0.119616
0.119696
0.119034
0.1177
0.115786
0.113401
0.110658
0.107667
0.104529
0.101334
0.0981528
0.0950427
0.0920459
0.0891945
0.0865104
0.0840094
0.0816975
0.0795784
0.0776547
0.0759234
0.0743812
0.0730244
0.0718489
0.0708505
0.070025
0.0693691
0.0688798
0.068555
0.0683928
0.0508377
0.0509302
0.0511164
0.0513993
0.0517838
0.0522763
0.0528846
0.0536193
0.0544926
0.055519
0.0567148
0.0580997
0.0596953
0.0615246
0.0636124
0.0659887
0.0686744
0.0716899
0.0750538
0.0787724
0.0828451
0.0872518
0.0919291
0.0967959
0.10174
0.106615
0.111243
0.115433
0.118999
0.121785
0.123671
0.124599
0.124572
0.123648
0.121923
0.119525
0.116595
0.11328
0.109718
0.106034
0.102332
0.0986926
0.0951753
0.0918226
0.0886651
0.0857218
0.0830005
0.080504
0.0782317
0.0761818
0.0743468
0.0727203
0.0712957
0.0700659
0.0690248
0.0681663
0.0674856
0.0669787
0.0666426
0.0664749
0.0490116
0.0490972
0.0492695
0.0495319
0.0498897
0.0503496
0.0509207
0.0516142
0.0524441
0.0534269
0.0545817
0.0559314
0.0575025
0.059324
0.0614275
0.0638532
0.0666321
0.0697958
0.0733781
0.0773985
0.0818681
0.0867831
0.0920843
0.0976828
0.103451
0.109207
0.11472
0.119736
0.124006
0.127314
0.129503
0.130496
0.130311
0.129031
0.126796
0.123776
0.120162
0.116139
0.111885
0.107554
0.103267
0.0991089
0.0951415
0.0914037
0.0879237
0.0847105
0.081765
0.0790844
0.076663
0.074492
0.0725597
0.0708559
0.0693701
0.0680925
0.0670143
0.0661277
0.0654263
0.0649048
0.0645595
0.0643872
0.0470971
0.047174
0.047329
0.0475657
0.0478896
0.0483078
0.0488301
0.0494685
0.0502381
0.0511574
0.0522481
0.0535364
0.0550534
0.0568346
0.0589194
0.0613586
0.0641969
0.0674805
0.0712618
0.07558
0.0804646
0.0859313
0.0919405
0.0983996
0.105165
0.112021
0.118663
0.124749
0.12993
0.133909
0.136472
0.137526
0.137105
0.135341
0.13243
0.128608
0.12412
0.119217
0.114124
0.10903
0.10407
0.099334
0.0948769
0.090732
0.0869167
0.0834292
0.080262
0.077404
0.0748426
0.0725607
0.0705418
0.0687709
0.0672336
0.0659169
0.0648094
0.0639012
0.0631844
0.0626523
0.0623003
0.0621248
0.0451025
0.0451689
0.0453031
0.0455087
0.045791
0.0461577
0.0466187
0.0471865
0.0478771
0.0487104
0.0497103
0.050906
0.0523328
0.054033
0.0560536
0.0584565
0.0613047
0.0646619
0.0686029
0.0731952
0.0784951
0.0845454
0.091347
0.0988142
0.106813
0.11505
0.123144
0.130623
0.136994
0.141839
0.14486
0.145946
0.14517
0.142736
0.138926
0.134057
0.128471
0.122467
0.116357
0.110369
0.104647
0.0992743
0.0942966
0.0897326
0.0855795
0.0818237
0.0784461
0.0754258
0.0727397
0.0703626
0.0682725
0.0664488
0.064873
0.0635286
0.0624016
0.0614801
0.0607543
0.0602165
0.0598612
0.0596841
0.0430381
0.0430923
0.0432021
0.0433709
0.0436039
0.0439088
0.0442953
0.0447762
0.0453674
0.0460899
0.0469689
0.048036
0.0493301
0.0508994
0.0527987
0.0551004
0.057889
0.0612494
0.0652828
0.0700955
0.0757857
0.0824388
0.0901036
0.0987143
0.108144
0.118147
0.128157
0.137504
0.145479
0.151476
0.155079
0.156154
0.154846
0.151486
0.146481
0.14024
0.133205
0.125802
0.118462
0.111442
0.104874
0.09882
0.0933045
0.0883197
0.0838398
0.0798343
0.0762685
0.0731101
0.0703225
0.0678726
0.065732
0.0638742
0.0622763
0.0609185
0.0597841
0.058859
0.0581322
0.0575945
0.0572396
0.0570629
0.0409161
0.0409563
0.0410381
0.0411646
0.0413408
0.0415736
0.0418723
0.0422492
0.04272
0.0433052
0.0440306
0.0449289
0.0460415
0.0474209
0.0491297
0.0512495
0.053885
0.0571466
0.0611675
0.0661039
0.0721135
0.0793497
0.0879464
0.0978452
0.10904
0.121277
0.133803
0.145647
0.155767
0.163274
0.167576
0.168523
0.166395
0.161731
0.155147
0.147142
0.13822
0.129046
0.120254
0.112069
0.10459
0.0978325
0.0917821
0.0863949
0.0816175
0.0773967
0.0736796
0.0704171
0.0675601
0.0650672
0.0629023
0.0610335
0.0594336
0.0580794
0.0569518
0.0560349
0.055316
0.0547851
0.054435
0.0542608
0.0387503
0.0387749
0.0388255
0.0389046
0.0390165
0.0391675
0.0393655
0.0396219
0.039951
0.0403719
0.0409095
0.041596
0.042473
0.0435956
0.0450318
0.0468703
0.0492314
0.0522548
0.0561116
0.0610145
0.067202
0.0749258
0.0844576
0.0959037
0.105235
0.119338
0.134388
0.149115
0.162134
0.172133
0.178183
0.179943
0.177747
0.172345
0.164623
0.155385
0.143246
0.131923
0.12146
0.111994
0.103579
0.0961363
0.0895881
0.0838474
0.0788259
0.0744446
0.0706285
0.0673085
0.0644241
0.0619254
0.0597685
0.0579164
0.0563379
0.0550071
0.0539027
0.0530069
0.0523061
0.0517894
0.051449
0.0512797
0.0365564
0.0365641
0.0365805
0.0366078
0.036649
0.0367092
0.0367949
0.0369153
0.0370824
0.0373128
0.0376286
0.0380592
0.0386441
0.0394369
0.0405073
0.0419477
0.0438867
0.0464898
0.0499686
0.0545966
0.0607072
0.0686707
0.0790192
0.0891381
0.105012
0.122222
0.141332
0.160508
0.177517
0.190269
0.197307
0.198257
0.193883
0.185571
0.174714
0.162226
0.150209
0.134092
0.121659
0.110898
0.101596
0.0935323
0.0865677
0.0805598
0.0753785
0.0709152
0.0670677
0.0637499
0.0608907
0.0584306
0.0563197
0.0545163
0.0529861
0.0517008
0.0506374
0.0497771
0.0491055
0.0486111
0.0482857
0.0481239
0.0343514
0.0343411
0.0343212
0.034293
0.0342584
0.0342207
0.0341842
0.0341553
0.0341427
0.0341589
0.0342212
0.0343538
0.0345902
0.034978
0.0355829
0.0364948
0.0378426
0.039803
0.0426219
0.0466259
0.0522619
0.0600282
0.0706431
0.0838304
0.101878
0.119511
0.143494
0.16831
0.190861
0.207941
0.217165
0.217851
0.211301
0.199868
0.185885
0.169219
0.152329
0.134962
0.120259
0.1084
0.0983441
0.0897981
0.0825591
0.0764156
0.0711942
0.0667502
0.0629572
0.0597152
0.0569428
0.054573
0.0525511
0.050832
0.0493794
0.0481635
0.0471605
0.046351
0.0457203
0.0452566
0.0449517
0.0448002
0.0321536
0.0321247
0.0320669
0.0319809
0.0318671
0.0317265
0.0315607
0.0313727
0.0311667
0.0309496
0.0307318
0.0305295
0.030366
0.0302777
0.0303179
0.0305646
0.0311357
0.0322021
0.0340175
0.0369411
0.0415418
0.0485317
0.0585013
0.0738633
0.0948685
0.118021
0.149684
0.183381
0.214609
0.237719
0.248415
0.245896
0.233174
0.214944
0.195225
0.175023
0.154164
0.133001
0.116565
0.104034
0.0934825
0.0847003
0.0774036
0.0713103
0.0662038
0.0619046
0.0582698
0.0551892
0.0525735
0.0503512
0.0484649
0.0468684
0.0455245
0.0444031
0.0434806
0.0427377
0.0421598
0.0417354
0.0414566
0.0413181
0.029982
0.0299342
0.0298382
0.0296936
0.029499
0.0292533
0.0289548
0.0286023
0.0281947
0.0277319
0.0272157
0.0266509
0.026047
0.0254226
0.02481
0.0242623
0.0238691
0.0237734
0.0242014
0.0254904
0.0282709
0.0335064
0.0416375
0.0583802
0.0815906
0.11011
0.152148
0.199412
0.24513
0.278881
0.29201
0.28332
0.259841
0.230871
0.203108
0.17682
0.152459
0.127705
0.110099
0.0973428
0.0866907
0.0780333
0.070976
0.0651707
0.0603626
0.0563547
0.0529964
0.0501716
0.0477882
0.0457741
0.0440724
0.0426377
0.041434
0.0404325
0.0396105
0.0389497
0.0384365
0.0380601
0.0378129
0.0376902
0.0278559
0.0277895
0.027656
0.0274535
0.0271792
0.0268294
0.026399
0.0258821
0.0252717
0.02456
0.023738
0.0227972
0.0217293
0.0205295
0.0192
0.0177541
0.0162312
0.0147154
0.0133641
0.0124072
0.0123908
0.0144032
0.0187393
0.0357519
0.0588639
0.0927575
0.147451
0.215177
0.286005
0.339723
0.356353
0.334071
0.29028
0.243919
0.205539
0.172983
0.145359
0.118219
0.100319
0.0879394
0.0777406
0.0696734
0.0632142
0.057965
0.0536619
0.0501073
0.0471517
0.0446812
0.0426075
0.0408629
0.0393943
0.03816
0.0371273
0.0362699
0.0355675
0.0350039
0.0345666
0.0342462
0.0340359
0.0339314
0.0257943
0.0257103
0.0255408
0.0252833
0.0249329
0.0244835
0.0239266
0.0232518
0.0224456
0.021492
0.0203709
0.0190587
0.0175269
0.0157427
0.0136701
0.0112706
0.0085092
0.00537178
0.00189739
-0.00188069
-0.00569318
-0.00864316
-0.0108548
0.00399143
0.0227632
0.0593103
0.126564
0.223052
0.339653
0.435501
0.457504
0.402886
0.319411
0.246482
0.196137
0.158897
0.130513
0.103419
0.0866231
0.0755413
0.0665378
0.0596048
0.0541299
0.049723
0.0461422
0.0432062
0.0407789
0.0387587
0.037069
0.0356517
0.0344616
0.0334635
0.0326298
0.0319389
0.0313736
0.0309205
0.0305693
0.0303122
0.0301434
0.0300595
0.0238155
0.0237152
0.0235128
0.0232046
0.0227844
0.0222435
0.0215704
0.0207503
0.0197641
0.0185874
0.0171895
0.0155319
0.0135649
0.0112261
0.00843776
0.00510084
0.00108997
-0.00374375
-0.00953469
-0.0165285
-0.0249031
-0.0343875
-0.0462025
-0.0376082
-0.0307007
0.000250138
0.0714198
0.199054
0.39941
0.598818
0.629192
0.488651
0.328169
0.221418
0.164445
0.130274
0.105817
0.0825206
0.06872
0.0601128
0.0531636
0.0479316
0.0438311
0.0405498
0.0379004
0.0357368
0.0339516
0.0324677
0.0312276
0.0301879
0.0293154
0.028584
0.0279735
0.0274679
0.0270546
0.0267235
0.0264671
0.0262793
0.0261561
0.0260947
0.021936
0.0218214
0.02159
0.0212373
0.0207558
0.020135
0.0193606
0.0184142
0.0172718
0.0159025
0.0142662
0.012311
0.00996897
0.0071506
0.00373738
-0.00042846
-0.00556405
-0.01197
-0.0199899
-0.030211
-0.0433627
-0.0601743
-0.0837981
-0.0866023
-0.101816
-0.0927457
-0.0472848
0.0774614
0.397412
0.901966
0.94376
0.547205
0.260826
0.139145
0.0992466
0.0842135
0.0704663
0.0558164
0.0469732
0.0419982
0.0379305
0.0349185
0.0325424
0.0306344
0.0290916
0.0278256
0.0267736
0.0258937
0.025154
0.024531
0.024006
0.0235648
0.0231959
0.0228901
0.0226401
0.0224397
0.0222847
0.0221711
0.0220965
0.0220592
0.0201707
0.0200441
0.0197886
0.019399
0.0188668
0.0181802
0.0173231
0.0162747
0.0150073
0.0134857
0.0116633
0.00947905
0.00685198
0.00367267
-0.000207817
-0.0049934
-0.0109738
-0.0185825
-0.0283589
-0.0412292
-0.0584458
-0.0818545
-0.116925
-0.135149
-0.180194
-0.214358
-0.249039
-0.279851
-0.112319
1.25361
1.46844
0.284519
-0.00339812
-0.0284456
-0.00287935
0.0237045
0.027095
0.0249785
0.0225339
0.0220228
0.021442
0.0210131
0.0206073
0.0202437
0.019924
0.0196355
0.0193742
0.0191401
0.0189322
0.0187496
0.0185907
0.0184542
0.0183384
0.0182416
0.0181622
0.0180985
0.0180491
0.0180129
0.017989
0.0179768
0.0185318
0.018396
0.0181217
0.0177037
0.0171329
0.0163967
0.0154783
0.0143556
0.0129996
0.0113731
0.00942711
0.00709727
0.00429761
0.0009111
-0.00322437
-0.00833331
-0.0147363
-0.0229398
-0.0335957
-0.047861
-0.0672595
-0.0944376
-0.136578
-0.170117
-0.241459
-0.326097
-0.470103
-0.830275
-1.86819
-1.24623
-0.497778
-0.245768
-0.116963
-0.0398814
-0.0186628
-0.00724056
-0.00276817
0.00142477
0.00454708
0.0068161
0.00846674
0.00970585
0.0106438
0.0113548
0.011899
0.0123216
0.0126537
0.0129178
0.0131305
0.0133034
0.0134449
0.0135606
0.0136548
0.0137301
0.0137885
0.0138312
0.0138591
0.0138726
0.017029
0.0168867
0.0165995
0.0161621
0.0155653
0.0147968
0.0138396
0.0126721
0.0112659
0.00958493
0.00758219
0.00519644
0.00234647
-0.00107725
-0.00522705
-0.0103144
-0.0166335
-0.0246717
-0.0350436
-0.0489309
-0.0676722
-0.0940236
-0.135172
-0.178127
-0.257835
-0.371497
-0.559429
-0.996736
-2.02139
-0.582613
-2.15789
-0.743881
-0.371132
-0.196453
-0.0930428
-0.0600261
-0.0377444
-0.0268431
-0.0183672
-0.0117703
-0.0069762
-0.00337444
-0.000610459
0.00152393
0.00318947
0.00450642
0.00556171
0.00641626
0.00711498
0.00769071
0.00816712
0.00856175
0.00888735
0.0091535
0.00936684
0.00953249
0.00965373
0.00973317
0.00977242
0.0156687
0.0155229
0.0152286
0.0147808
0.0141708
0.0133868
0.0124131
0.0112295
0.00981047
0.00812368
0.00612822
0.00377199
0.000987914
-0.00231156
-0.00624636
-0.0109799
-0.0167222
-0.0238421
-0.0327458
-0.0444085
-0.0594577
-0.0800614
-0.111166
-0.154149
-0.220915
-0.329318
-0.487416
-0.810918
-1.48473
-1.96344
-0.925042
-0.787998
-0.470376
-0.336017
-0.219135
-0.130829
-0.0931485
-0.0641637
-0.0478968
-0.0360445
-0.0265767
-0.0196898
-0.0144253
-0.0103482
-0.00717183
-0.00466221
-0.0026516
-0.00102106
0.000314346
0.0014175
0.00233423
0.00309824
0.00373442
0.00426161
0.00469366
0.00504069
0.00531046
0.00550812
0.00563774
0.00570205
0.0144548
0.0143081
0.0140122
0.0135627
0.0129514
0.0121679
0.0111981
0.0100246
0.00862571
0.00697522
0.00504122
0.00278531
0.000160801
-0.00288789
-0.0064309
-0.010559
-0.0153581
-0.0210078
-0.0275692
-0.0356581
-0.0448305
-0.0564045
-0.0710274
-0.104743
-0.143659
-0.219773
-0.322607
-0.526244
-0.918495
-1.40765
-1.05436
-0.275135
-0.144153
-0.255528
-0.2171
-0.159489
-0.118321
-0.0850366
-0.0646744
-0.0506175
-0.0391372
-0.0307813
-0.0242874
-0.0192172
-0.0152285
-0.0120371
-0.00944969
-0.00732802
-0.00557281
-0.00410966
-0.00288437
-0.00185675
-0.000996465
-0.000280685
0.00030771
0.000781372
0.00115022
0.00142088
0.00159852
0.00168677
0.013388
0.0132429
0.0129506
0.0125071
0.0119053
0.0111361
0.0101877
0.00904606
0.007694
0.00611226
0.0042792
0.00217161
-0.000234345
-0.00295951
-0.00601904
-0.00942312
-0.0131256
-0.017103
-0.0210273
-0.0251505
-0.027867
-0.0298913
-0.0263245
-0.0440722
-0.0481597
-0.0777259
-0.132017
-0.251355
-0.507822
-0.846663
-0.930545
-0.598354
-0.38529
-0.281713
-0.229296
-0.18331
-0.136015
-0.0991471
-0.0763068
-0.0614246
-0.0489627
-0.039886
-0.0326936
-0.0270211
-0.0224964
-0.0188186
-0.015795
-0.0132841
-0.0111827
-0.00941346
-0.00791915
-0.00665723
-0.00559474
-0.00470676
-0.00397428
-0.00338307
-0.00292171
-0.00258266
-0.00235986
-0.00224909
0.0124667
0.0123255
0.0120412
0.0116103
0.0110271
0.0102838
0.00937098
0.00827768
0.00699157
0.00549983
0.00379028
0.00185354
-0.000314087
-0.00270342
-0.00528281
-0.0079934
-0.010685
-0.0131839
-0.0148258
-0.0156399
-0.0129985
-0.00762166
0.0108074
0.0115466
0.0417206
0.0625588
0.0614747
-0.0190917
-0.274515
-0.744672
-1.21257
-1.08889
-0.60181
-0.341705
-0.247494
-0.195728
-0.14395
-0.105361
-0.0822886
-0.0681669
-0.0558599
-0.0468668
-0.0395454
-0.0336825
-0.0289093
-0.0249489
-0.0216365
-0.0188431
-0.0164733
-0.0144552
-0.0127346
-0.0112703
-0.0100298
-0.0089879
-0.00812533
-0.00742695
-0.00688085
-0.00647874
-0.00621424
-0.0060826
0.0116871
0.0115515
0.0112789
0.0108665
0.0103091
0.00960086
0.00873419
0.0077009
0.00649247
0.00510137
0.00352247
0.00175625
-0.000187124
-0.00227948
-0.00446127
-0.0066348
-0.00859522
-0.010114
-0.0103226
-0.00925574
-0.00358842
0.00520898
0.0310448
0.0470956
0.100843
0.166996
0.226085
0.174096
-0.176844
-0.697928
-1.05746
-0.875368
-0.530698
-0.327274
-0.235347
-0.18731
-0.139288
-0.103247
-0.0827733
-0.0710336
-0.06
-0.0518508
-0.0449331
-0.0392545
-0.0344913
-0.0304336
-0.0269671
-0.0239895
-0.021424
-0.0192115
-0.0173059
-0.0156709
-0.0142768
-0.0131
-0.0121219
-0.0113275
-0.0107049
-0.0102456
-0.00994312
-0.00979249
0.0110431
0.0109149
0.0106571
0.0102676
0.00974208
0.00907577
0.00826275
0.00729689
0.00617231
0.00488462
0.00343266
0.00182134
6.6664e-05
-0.00179894
-0.0037104
-0.00556715
-0.00716709
-0.00832938
-0.00814913
-0.00692685
-0.00109104
0.00649044
0.0302171
0.0525258
0.107975
0.192186
0.248862
0.102209
-0.214344
-0.527637
-0.634497
-0.518616
-0.374574
-0.255368
-0.192224
-0.1563
-0.121818
-0.0940356
-0.0788111
-0.0707969
-0.0619509
-0.0552337
-0.0491301
-0.0439151
-0.0393526
-0.0353373
-0.0318201
-0.0287359
-0.0260342
-0.0236734
-0.0216191
-0.0198418
-0.018317
-0.0170234
-0.0159438
-0.0150646
-0.0143739
-0.0138635
-0.013527
-0.0133593
0.0105276
0.010408
0.0101675
0.00980452
0.00931542
0.00869627
0.00794232
0.00704866
0.00601068
0.00482526
0.00349209
0.00201509
0.000407611
-0.00130616
-0.00307651
-0.0048304
-0.00641762
-0.00777979
-0.00812244
-0.0082232
-0.00470031
-0.00211788
0.0117142
0.0288733
0.05935
0.107592
0.0782135
-0.110411
-0.312923
-0.430303
-0.414867
-0.349205
-0.250185
-0.1752
-0.128205
-0.109063
-0.0945396
-0.080404
-0.0724075
-0.0688033
-0.0626307
-0.0576342
-0.0525506
-0.0479333
-0.0436668
-0.039768
-0.0362589
-0.033116
-0.0303182
-0.0278428
-0.0256681
-0.0237724
-0.0221363
-0.0207421
-0.0195746
-0.018621
-0.0178705
-0.017315
-0.0169483
-0.0167655
0.010132
0.0100219
0.00980085
0.00946732
0.00901831
0.00845052
0.00775984
0.00694188
0.0059924
0.00490783
0.003686
0.0023262
0.000833024
-0.000784923
-0.00250878
-0.00430902
-0.00611504
-0.0080205
-0.00941863
-0.0116342
-0.0116954
-0.0155445
-0.0143543
-0.00940271
-0.0131399
-0.0241306
-0.112989
-0.300081
-0.462509
-0.447379
-0.334283
-0.274367
-0.185653
-0.0883737
-0.0532727
-0.055317
-0.0641696
-0.0664959
-0.0661613
-0.0667414
-0.0631789
-0.0598031
-0.0556751
-0.0516149
-0.0476301
-0.0438506
-0.0403601
-0.0371732
-0.0342978
-0.0317278
-0.0294519
-0.0274556
-0.0257243
-0.0242436
-0.023
-0.0219819
-0.0211793
-0.0205846
-0.0201915
-0.0199955
0.00984652
0.00974693
0.00954696
0.00924539
0.0088396
0.00832674
0.00770317
0.00696458
0.00610652
0.00512386
0.00401068
0.00276038
0.00136695
-0.000179327
-0.00189406
-0.00379275
-0.00588998
-0.00841306
-0.0109361
-0.0152366
-0.0187623
-0.0279318
-0.037145
-0.0436084
-0.0695532
-0.117765
-0.211354
-0.373591
-0.514847
-0.454113
-0.280922
-0.153638
-0.0092786
0.0689814
0.0131094
-0.00573241
-0.0386745
-0.0573959
-0.0629542
-0.0664063
-0.0647254
-0.0624619
-0.0589612
-0.0552441
-0.0514206
-0.0476974
-0.0441938
-0.0409493
-0.0379951
-0.0353372
-0.0329711
-0.0308867
-0.0290727
-0.0275173
-0.0262081
-0.0251347
-0.0242873
-0.0236587
-0.023243
-0.0230356
0.00966079
0.00957241
0.00939496
0.00912748
0.00876773
0.00831323
0.00776088
0.00710618
0.00634397
0.00546748
0.00446774
0.00333212
0.00204494
0.000582232
-0.00110149
-0.00305572
-0.00536861
-0.0083497
-0.0116888
-0.0174089
-0.0233172
-0.0352893
-0.0504805
-0.0633038
-0.0955994
-0.149323
-0.214049
-0.334777
-0.414768
-0.418482
-0.272142
-0.0869493
0.0522754
0.101044
0.0462186
0.0230835
-0.0276887
-0.0579191
-0.0652893
-0.0693151
-0.0681485
-0.0661309
-0.0627332
-0.059027
-0.0551672
-0.0513833
-0.0478035
-0.0444706
-0.0414243
-0.0386761
-0.0362243
-0.0340602
-0.0321737
-0.0305536
-0.0291884
-0.0280679
-0.0271826
-0.0265255
-0.0260907
-0.0258737
0.00956355
0.00948699
0.00933328
0.00910175
0.00879057
0.00839781
0.00792078
0.00735488
0.00669454
0.00593247
0.00505776
0.00405386
0.00289873
0.0015611
-2.52242e-05
-0.00192308
-0.00427368
-0.00740653
-0.0110506
-0.0172406
-0.02411
-0.0362927
-0.053224
-0.0677825
-0.0973109
-0.141317
-0.173501
-0.23381
-0.30677
-0.380091
-0.31468
-0.172114
-0.0584288
0.00518047
0.0257708
0.00731893
-0.0399148
-0.0704904
-0.0742865
-0.0761126
-0.0737849
-0.0709895
-0.0670906
-0.0630337
-0.0589186
-0.0549382
-0.0512021
-0.0477406
-0.0445854
-0.0417418
-0.0392063
-0.0369691
-0.0350189
-0.0333437
-0.0319315
-0.0307718
-0.0298554
-0.0291749
-0.0287246
-0.0284998
0.00954295
0.00947867
0.0093497
0.00915568
0.00889537
0.00856735
0.00816923
0.00769721
0.00714634
0.00650958
0.00577615
0.004929
0.00394352
0.0027893
0.00139014
-0.000305455
-0.00246835
-0.00539593
-0.00880718
-0.0145477
-0.021083
-0.0315521
-0.0471262
-0.0607818
-0.0847157
-0.119192
-0.128781
-0.164362
-0.250735
-0.311789
-0.278551
-0.210763
-0.134253
-0.065925
-0.0465462
-0.0558194
-0.0749055
-0.092827
-0.0887068
-0.086108
-0.0812116
-0.0767878
-0.0718666
-0.0671464
-0.0625931
-0.0583141
-0.0543634
-0.0507399
-0.0474629
-0.0445223
-0.0419071
-0.0396041
-0.0375993
-0.0358784
-0.0344284
-0.0332379
-0.0322971
-0.0315985
-0.0311361
-0.0309052
0.00958663
0.00953497
0.00943142
0.0092761
0.00906833
0.00880718
0.0084912
0.00811806
0.00768424
0.00718428
0.00660977
0.00594655
0.00517132
0.00426238
0.00314288
0.00179644
4.30079e-05
-0.00235117
-0.00507646
-0.00964821
-0.0148843
-0.0225162
-0.0347839
-0.0464217
-0.0646986
-0.0921825
-0.0988453
-0.13405
-0.194079
-0.221219
-0.182984
-0.118276
-0.186726
-0.169319
-0.145377
-0.133958
-0.119426
-0.118362
-0.105125
-0.0973966
-0.0893258
-0.0828884
-0.0766844
-0.0711386
-0.0660475
-0.0614123
-0.0572239
-0.0534294
-0.0500286
-0.0469971
-0.0443118
-0.0419537
-0.0399052
-0.0381494
-0.0366714
-0.0354587
-0.0345006
-0.0337892
-0.0333184
-0.0330834
0.00968189
0.009643
0.00956524
0.00944912
0.00929456
0.00910153
0.00887004
0.00859963
0.00828907
0.00793569
0.00753523
0.0070794
0.00654981
0.00594031
0.00517916
0.00430235
0.00313465
0.00152455
-0.000191877
-0.00313892
-0.00646505
-0.0107699
-0.018619
-0.0277411
-0.0403227
-0.0619363
-0.0747234
-0.104019
-0.14128
-0.182396
-0.160972
-0.144727
-0.287718
-0.277033
-0.226491
-0.192901
-0.157098
-0.13994