/*--------------------------------*- C++ -*----------------------------------*\
  =========                 |
  \\      /  F ield         | OpenFOAM: The Open Source CFD Toolbox
   \\    /   O peration     | Website:  https://openfoam.org
    \\  /    A nd           | Version:  12
     \\/     M anipulation  |
\*---------------------------------------------------------------------------*/
FoamFile
{
    format      ascii;
    class       surfaceScalarField;
    location    "480";
    object      phi;
}
// * * * * * * * * * * * * * * * * * * * * * * * * * * * * * * * * * * * * * //

dimensions      [0 3 -1 0 0 0 0];

internalField   nonuniform List<scalar> 
32440
(
-1.37231e-07
0.0399881
1.72865e-06
0.0399881
-4.02052e-07
0.0399901
1.4725e-06
0.0399881
-6.4554e-07
0.0399901
1.24541e-06
0.0399981
1.14766e-06
0.0400101
1.06291e-06
0.0400101
2.99385e-06
0.0400101
4.94275e-06
0.0400101
6.91279e-06
0.04001
2.90615e-06
0.040004
2.92305e-06
0.04
2.96709e-06
0.04
3.04031e-06
0.0399999
3.14474e-06
0.0399999
3.28208e-06
0.0399999
3.45373e-06
0.0399998
3.66073e-06
0.0399998
3.90323e-06
0.0399998
4.18062e-06
0.0399997
4.49127e-06
0.0399997
4.83335e-06
0.0399997
5.20397e-06
0.0399996
5.59926e-06
0.0399996
6.01453e-06
0.0399996
6.44414e-06
0.0399996
6.88229e-06
0.0399996
5.72182e-06
0.0400012
4.94865e-07
0.0400052
-6.23983e-07
0.0400011
-4.23602e-07
0.0399998
-5.02618e-08
0.0399996
2.89791e-07
0.0399997
1.59092e-06
0.0399987
1.84827e-06
0.0399997
2.05823e-06
0.0399998
2.21799e-06
0.0399998
2.32595e-06
0.0399999
2.38147e-06
0.0399999
2.38484e-06
0.04
2.33717e-06
0.04
2.24022e-06
0.0400001
2.09637e-06
0.0400001
1.90857e-06
0.0400002
1.67993e-06
0.0400002
1.41383e-06
0.0400003
1.11411e-06
0.0400003
7.83504e-07
0.0400003
4.25722e-07
0.0400004
4.41867e-08
0.0400004
-2.35796e-06
0.0400024
-8.77704e-06
0.0400064
-3.21117e-06
0.0400064
3.41881e-07
0.0400084
-1.15322e-07
0.0400105
1.41999e-06
0.0399985
9.49715e-07
0.0399885
4.75756e-07
0.0399905
0.0399885
-1.01847e-06
0.0399892
-2.03002e-06
0.0399891
-3.03246e-06
0.0399911
-4.02109e-06
0.0399891
-2.99056e-06
0.0399891
-1.93581e-06
0.0399971
-8.50586e-07
0.040009
-1.72795e-06
0.040011
-5.59453e-07
0.0400089
2.66264e-06
0.0400068
5.95086e-06
0.0400067
-2.68459e-06
0.0400126
-7.2414e-06
0.0400045
-7.70378e-06
0.0400004
-8.06152e-06
0.0400003
-8.30274e-06
0.0400001
-8.41657e-06
0.04
-8.39277e-06
0.0399998
-8.22167e-06
0.0399996
-7.89603e-06
0.0399994
-7.41093e-06
0.0399992
-6.76666e-06
0.039999
-5.96229e-06
0.0399989
-5.00216e-06
0.0399987
-3.89442e-06
0.0399985
-2.45106e-06
0.0399981
-1.08775e-06
0.0399982
-2.40891e-08
0.0399985
1.17355e-07
0.040001
-3.99562e-06
0.0400093
-3.87048e-06
0.040001
-2.25433e-06
0.0399982
-6.68053e-07
0.039998
8.61148e-07
0.0399981
1.10808e-06
0.0399985
2.44993e-06
0.0399984
3.66652e-06
0.0399986
4.74114e-06
0.0399988
5.66148e-06
0.039999
6.4184e-06
0.0399992
7.00647e-06
0.0399994
7.42355e-06
0.0399996
7.67055e-06
0.0399999
7.75164e-06
0.0400001
9.67123e-06
0.0399983
9.43772e-06
0.0400005
9.0604e-06
0.0400006
8.5492e-06
0.0400008
7.91584e-06
0.040001
7.17164e-06
0.0400011
4.32664e-06
0.0400032
-6.06277e-07
0.0400073
-3.61549e-06
0.0400094
-2.6929e-06
0.0400055
-1.82719e-06
0.0400076
-1.00771e-06
0.0400096
3.77551e-06
0.0399937
5.31525e-07
0.0399917
1.26967e-06
0.0399897
0.0399897
-2.17867e-06
0.0399913
-4.34751e-06
0.0399913
-4.50342e-06
0.0399913
-6.64002e-06
0.0399913
-1.07494e-05
0.0399932
-6.82188e-06
0.0399931
-8.8513e-06
0.040011
-8.82146e-06
0.0400109
-8.7226e-06
0.0400088
-8.53554e-06
0.0400066
-8.24686e-06
0.0400065
-1.78237e-05
0.0400222
-2.12698e-05
0.040008
-2.25568e-05
0.0400017
-2.36566e-05
0.0400014
-2.45506e-05
0.040001
-2.52141e-05
0.0400006
-2.56247e-05
0.0400002
-2.176e-05
0.0399958
-2.56008e-05
0.0400033
-2.51366e-05
0.0399988
-2.43586e-05
0.0399983
-2.32616e-05
0.0399978
-2.18477e-05
0.0399973
-2.01271e-05
0.0399968
-1.8117e-05
0.0399961
-1.58426e-05
0.0399959
-1.33345e-05
0.039996
-1.2234e-05
0.0399999
-1.50702e-05
0.0400122
-1.36343e-05
0.0399996
-1.08359e-05
0.0399954
-7.84066e-06
0.039995
-4.89989e-06
0.0399952
-1.06274e-06
0.0399946
1.62569e-06
0.0399957
4.12557e-06
0.0399961
6.40292e-06
0.0399965
8.42945e-06
0.0399969
1.0184e-05
0.0399974
1.16523e-05
0.0399979
1.28263e-05
0.0399985
1.37045e-05
0.039999
1.42875e-05
0.0399995
1.25846e-05
0.04
1.26065e-05
0.0400004
1.23681e-05
0.0400009
1.38838e-05
0.0399993
1.31729e-05
0.0400017
1.02547e-05
0.040004
7.14935e-06
0.0400063
-4.11916e-06
0.0400186
4.60677e-07
0.0400048
9.11923e-07
0.0400051
1.25497e-06
0.0400072
3.50879e-06
0.0400074
5.69252e-06
0.0399915
3.82342e-06
0.0399936
1.91957e-06
0.0399916
0.0399917
-3.41688e-06
0.0399948
-6.8209e-06
0.0399947
-1.02094e-05
0.0399947
-1.35739e-05
0.0399946
-1.49043e-05
0.0399945
-1.81895e-05
0.0399964
-1.54153e-05
0.0400083
-1.65689e-05
0.0400121
-1.76258e-05
0.0400099
-2.05706e-05
0.0400096
-2.33687e-05
0.0400093
-2.99873e-05
0.0400288
-3.64212e-05
0.0400144
-4.06237e-05
0.0400059
-4.25661e-05
0.0400033
-4.22024e-05
0.0400007
-4.15038e-05
0.0399999
-3.2437e-05
0.0399911
-2.69644e-05
0.0399903
-3.90274e-05
0.0400153
-4.46445e-05
0.0400044
-4.37804e-05
0.0399974
-4.24244e-05
0.0399964
-4.05733e-05
0.0399954
-3.82435e-05
0.0399944
-3.54543e-05
0.0399933
-3.224e-05
0.0399927
-2.88478e-05
0.0399926
-2.63283e-05
0.0399974
-2.78377e-05
0.0400137
-2.49916e-05
0.0399967
-2.07247e-05
0.0399911
-1.60263e-05
0.0399903
-1.15764e-05
0.0399907
-8.44925e-06
0.0399915
-4.3145e-06
0.0399916
-4.34181e-07
0.0399922
3.13836e-06
0.0399929
8.35895e-06
0.0399917
1.11944e-05
0.0399946
1.36204e-05
0.0399955
1.56236e-05
0.0399965
1.7196e-05
0.0399974
1.83422e-05
0.0399983
1.90719e-05
0.0399992
1.93976e-05
0.0400001
1.93389e-05
0.0400009
1.69222e-05
0.0400017
1.817e-05
0.0400004
1.7111e-05
0.0400051
5.77621e-06
0.0400177
4.19588e-06
0.0400202
2.3909e-06
0.0400067
2.39486e-06
0.0400051
2.23768e-06
0.0400074
7.94848e-06
0.0400017
5.55248e-06
0.0399939
5.07778e-06
0.0399941
2.55061e-06
0.0399942
0.0399942
-4.7178e-06
0.0399995
-9.42007e-06
0.0399994
-1.41052e-05
0.0399994
-1.87622e-05
0.0399993
-2.33824e-05
0.0399991
-2.59482e-05
0.039999
-2.24443e-05
0.0400048
-2.68516e-05
0.0400165
-3.1146e-05
0.0400142
-3.32974e-05
0.0400117
-3.52723e-05
0.0400112
-3.90231e-05
0.0400326
-5.05187e-05
0.0400259
-5.57297e-05
0.0400111
-5.85959e-05
0.0400062
-6.10694e-05
0.0400031
-5.70951e-05
0.039996
-4.46435e-05
0.0399787
-5.16176e-05
0.0399973
-6.19685e-05
0.0400257
-6.57143e-05
0.0400081
-6.47993e-05
0.0399965
-6.32092e-05
0.0399948
-6.09381e-05
0.0399931
-5.79907e-05
0.0399915
-5.43977e-05
0.0399897
-5.02027e-05
0.0399885
-4.54623e-05
0.0399879
-4.18591e-05
0.0399938
-4.19539e-05
0.0400138
-3.76076e-05
0.0399924
-3.15683e-05
0.0399851
-2.56638e-05
0.0399844
-1.94011e-05
0.0399845
-1.26812e-05
0.0399848
-7.00161e-06
0.0399859
-1.64796e-06
0.0399868
3.30572e-06
0.039988
5.79934e-06
0.0399892
9.78516e-06
0.0399906
1.32299e-05
0.0399921
1.81132e-05
0.0399916
2.04273e-05
0.0399951
2.21758e-05
0.0399966
2.33666e-05
0.0399981
2.40228e-05
0.0399995
2.41707e-05
0.0400008
2.38369e-05
0.040002
2.10608e-05
0.0400032
1.18768e-05
0.0400143
-1.66794e-06
0.0400312
8.44318e-06
0.0400101
8.2619e-06
0.0400068
5.82823e-06
0.0400075
7.17987e-06
0.040006
1.23544e-05
0.0399965
9.38777e-06
0.0399969
6.31546e-06
0.0399971
3.17329e-06
0.0399973
0.0399974
-6.06569e-06
0.0400055
-1.0113e-05
0.0400035
-1.61436e-05
0.0400054
-2.21457e-05
0.0400053
-2.81068e-05
0.0400051
-3.40101e-05
0.0400049
-3.58356e-05
0.0400066
-3.55608e-05
0.0400162
-4.11574e-05
0.0400197
-4.65878e-05
0.0400172
-4.98187e-05
0.0400145
-3.68002e-05
0.0400196
-5.94167e-05
0.0400485
-7.17117e-05
0.0400234
-7.75847e-05
0.0400121
-7.89697e-05
0.0400045
-7.381e-05
0.0399908
-7.20277e-05
0.0399769
-7.75149e-05
0.0400027
-8.62288e-05
0.0400344
-8.81565e-05
0.0400101
-8.72306e-05
0.0399956
-8.54233e-05
0.039993
-8.27228e-05
0.0399904
-7.91338e-05
0.0399879
-7.46971e-05
0.0399853
-6.92612e-05
0.0399831
-6.37052e-05
0.0399823
-5.85138e-05
0.0399886
-5.70926e-05
0.0400124
-5.11266e-05
0.0399864
-4.35964e-05
0.0399775
-3.55615e-05
0.0399764
-2.79608e-05
0.0399769
-2.13315e-05
0.0399781
-1.39988e-05
0.0399786
-5.07347e-06
0.0399779
1.34906e-06
0.0399815
7.18927e-06
0.0399834
1.23873e-05
0.0399854
1.69013e-05
0.0399876
1.87038e-05
0.0399898
2.17873e-05
0.039992
2.61515e-05
0.0399922
2.78184e-05
0.0399964
2.8809e-05
0.0399985
2.9158e-05
0.0400004
2.89046e-05
0.0400023
2.60921e-05
0.040006
1.47727e-05
0.0400256
1.49951e-05
0.040031
1.47909e-05
0.0400103
1.22219e-05
0.0400094
1.13373e-05
0.0400084
1.81871e-05
0.0399992
1.4812e-05
0.0399999
1.12607e-05
0.0400004
7.57816e-06
0.0400008
3.80851e-06
0.0400011
0.0400012
-7.45041e-06
0.040013
-1.48819e-05
0.0400109
-2.22972e-05
0.0400128
-2.9685e-05
0.0400127
-3.70319e-05
0.0400125
-4.43197e-05
0.0400122
-4.95261e-05
0.0400118
-4.86195e-05
0.0400153
-5.35779e-05
0.0400247
-5.83521e-05
0.0400219
-6.48981e-05
0.040021
-6.71655e-05
0.0400218
-7.10287e-05
0.0400524
-9.04839e-05
0.0400429
-9.54541e-05
0.040017
-9.38416e-05
0.0400029
-7.76021e-05
0.0399746
-9.65498e-05
0.0399959
-0.000102627
0.0400088
-0.000109759
0.0400415
-0.000111917
0.0400122
-0.000111012
0.0399947
-0.000109002
0.039991
-0.000105861
0.0399873
-0.000101613
0.0399837
-9.60763e-05
0.0399798
-8.9921e-05
0.0399769
-8.26349e-05
0.039975
-7.61448e-05
0.0399821
-7.3074e-05
0.0400093
-6.53362e-05
0.0399787
-5.57672e-05
0.039968
-4.62502e-05
0.0399669
-3.63682e-05
0.039967
-2.60921e-05
0.0399679
-1.69795e-05
0.0399695
-1.03701e-05
0.0399713
-2.38554e-06
0.0399736
4.8784e-06
0.0399761
1.33467e-05
0.0399769
1.89709e-05
0.0399819
2.37204e-05
0.039985
2.75856e-05
0.0399881
2.85751e-05
0.0399912
3.27047e-05
0.0399923
3.40158e-05
0.0399972
3.4546e-05
0.0399999
3.43458e-05
0.0400025
2.14746e-05
0.0400189
4.00305e-06
0.0400431
1.99459e-05
0.040015
1.93893e-05
0.0400108
1.84001e-05
0.0400104
2.30333e-05
0.0400037
1.93433e-05
0.0400029
1.53877e-05
0.0400038
1.12218e-05
0.0400046
6.89911e-06
0.0400051
4.47329e-06
0.0400035
0.0400057
-6.8612e-06
0.0400198
-1.77074e-05
0.0400217
-2.65383e-05
0.0400216
-3.33433e-05
0.0400195
-4.2113e-05
0.0400212
-5.08268e-05
0.0400209
-5.94582e-05
0.0400204
-6.3984e-05
0.0400198
-6.63599e-05
0.0400271
-7.45453e-05
0.0400301
-8.24773e-05
0.0400289
-8.6118e-05
0.0400255
-6.93675e-05
0.0400356
-9.80019e-05
0.0400715
-0.000118161
0.0400372
-0.000119642
0.0400044
-0.000116381
0.0399713
-0.000122172
0.0400017
-0.000126945
0.0400136
-0.000134575
0.0400492
-0.000137006
0.0400147
-0.000136168
0.0399938
-0.000133963
0.0399888
-0.00013039
0.0399837
-0.000125428
0.0399787
-0.000119117
0.0399735
-0.000111543
0.0399694
-0.000102819
0.0399663
-9.48773e-05
0.0399742
-8.97765e-05
0.0400042
-8.01013e-05
0.039969
-6.86982e-05
0.0399566
-5.69169e-05
0.0399551
-4.51786e-05
0.0399553
-3.26923e-05
0.0399554
-2.16528e-05
0.0399584
-1.12365e-05
0.0399609
-1.58512e-06
0.0399639
7.18364e-06
0.0399674
1.29843e-05
0.0399711
2.17559e-05
0.0399732
2.74722e-05
0.0399793
3.21197e-05
0.0399835
3.5716e-05
0.0399876
3.82915e-05
0.0399897
3.98865e-05
0.0399956
4.05545e-05
0.0399992
3.63652e-05
0.0400067
2.3383e-05
0.0400319
2.36863e-05
0.0400428
2.53144e-05
0.0400134
2.43626e-05
0.0400118
3.09027e-05
0.0400039
2.90027e-05
0.0400056
2.47273e-05
0.0400072
2.01442e-05
0.0400084
1.53178e-05
0.0400094
1.03102e-05
0.0400101
5.18249e-06
0.0400086
0.0400109
-1.02948e-05
0.0400301
-2.05738e-05
0.040032
-2.88413e-05
0.0400299
-4.10953e-05
0.0400317
-4.93158e-05
0.0400294
-5.94911e-05
0.0400311
-6.95945e-05
0.0400305
-7.95943e-05
0.0400298
-8.14376e-05
0.0400289
-8.90954e-05
0.0400378
-9.84979e-05
0.0400383
-0.000107562
0.0400345
-0.000110211
0.0400383
-0.00012624
0.0400875
-0.00013568
0.0400466
-0.000132385
0.0400011
-0.000142197
0.0399811
-0.000148946
0.0400084
-0.000152502
0.0400172
-0.000160705
0.0400574
-0.000163508
0.0400175
-0.000162771
0.0399931
-0.000160406
0.0399864
-0.000156369
0.0399797
-0.000150644
0.039973
-0.000143293
0.0399661
-0.000134381
0.0399604
-0.000124242
0.0399562
-0.000114066
0.039964
-0.000107147
0.0399973
-9.5301e-05
0.0399571
-8.16473e-05
0.0399429
-6.73773e-05
0.0399408
-5.33627e-05
0.0399412
-4.08712e-05
0.0399429
-2.77353e-05
0.0399453
-1.53647e-05
0.0399485
-1.93384e-06
0.0399505
8.42624e-06
0.039957
1.76155e-05
0.039962
2.3569e-05
0.0399672
3.22554e-05
0.0399706
3.76783e-05
0.0399781
4.18549e-05
0.0399835
4.28284e-05
0.0399887
4.66525e-05
0.0399917
4.54079e-05
0.0400005
3.11648e-05
0.0400209
1.00387e-05
0.040053
3.40181e-05
0.0400188
3.32505e-05
0.0400142
3.98346e-05
0.0400052
3.58336e-05
0.0400079
3.13319e-05
0.0400101
2.64071e-05
0.0400121
2.11344e-05
0.0400137
1.75882e-05
0.040013
1.18365e-05
0.0400159
3.94824e-06
0.0400165
0.0400148
-1.1738e-05
0.0400419
-2.14612e-05
0.0400417
-3.51874e-05
0.0400436
-4.49011e-05
0.0400414
-5.86031e-05
0.0400431
-7.02695e-05
0.0400427
-7.98759e-05
0.0400401
-9.13957e-05
0.0400414
-0.000102781
0.0400403
-0.00010396
0.040039
-0.000112895
0.0400473
-0.000125486
0.0400471
-0.000133629
0.0400464
-0.000133165
0.0400871
-0.000146009
0.0400595
-0.000134106
0.0399892
-0.000163094
0.0400101
-0.000172898
0.0400182
-0.000181362
0.0400256
-0.000186264
0.0400623
-0.000189505
0.0400207
-0.000190928
0.0399945
-0.000188439
0.0399839
-0.000183926
0.0399752
-0.000177411
0.0399665
-0.000168892
0.0399576
-0.000158297
0.0399499
-0.000146383
0.0399442
-0.00013434
0.039952
-0.000125134
0.0399881
-0.000110653
0.0399427
-9.4475e-05
0.0399267
-7.80444e-05
0.0399244
-6.13053e-05
0.0399245
-4.43767e-05
0.039926
-2.8943e-05
0.0399298
-1.44531e-05
0.039934
-3.10705e-06
0.0399391
1.09323e-05
0.039943
2.1565e-05
0.0399513
3.07248e-05
0.039958
3.6384e-05
0.039965
4.45447e-05
0.0399699
4.92526e-05
0.0399788
5.25622e-05
0.0399854
5.25503e-05
0.0399918
5.12968e-05
0.0400017
4.09117e-05
0.0400313
3.95035e-05
0.0400544
4.31113e-05
0.0400152
4.98838e-05
0.0400074
4.59091e-05
0.0400092
4.1284e-05
0.0400125
3.61015e-05
0.0400153
3.04489e-05
0.0400177
2.64124e-05
0.0400177
1.80693e-05
0.0400213
1.35034e-05
0.0400205
6.78664e-06
0.0400232
0.0400216
-1.31834e-05
0.0400551
-2.63596e-05
0.0400549
-3.75408e-05
0.0400548
-5.27353e-05
0.0400566
-6.3921e-05
0.0400543
-7.71052e-05
0.0400559
-9.02516e-05
0.0400533
-0.000103333
0.0400544
-0.000116303
0.0400533
-0.000129102
0.0400518
-0.000131642
0.0400498
-0.00014185
0.0400573
-0.000151666
0.0400563
-0.000126905
0.0400623
-0.000161138
0.0400937
-0.000178686
0.0400067
-0.000193037
0.0400245
-0.000202096
0.0400273
-0.000205622
0.0400291
-0.000205378
0.040062
-0.000219159
0.0400345
-0.000220838
0.0399962
-0.00021824
0.0399813
-0.000213283
0.0399702
-0.000205884
0.0399591
-0.00019612
0.0399478
-0.000184069
0.0399378
-0.000170122
0.0399303
-0.000155555
0.0399374
-0.000143764
0.0399763
-0.000126715
0.0399256
-0.00010766
0.0399077
-8.79472e-05
0.0399047
-6.87727e-05
0.0399053
-5.09256e-05
0.0399081
-3.29615e-05
0.0399119
-1.4167e-05
0.0399152
1.22954e-06
0.0399237
1.30528e-05
0.0399311
2.71787e-05
0.0399372
3.75544e-05
0.0399477
4.61612e-05
0.0399564
5.30245e-05
0.039963
5.81956e-05
0.0399736
6.17559e-05
0.0399818
5.98062e-05
0.0399937
4.04646e-05
0.0400211
2.78515e-05
0.0400439
5.20239e-05
0.0400302
5.91412e-05
0.040008
5.73276e-05
0.0400092
5.26927e-05
0.0400138
4.73434e-05
0.0400178
4.33851e-05
0.0400193
3.69105e-05
0.0400242
2.80188e-05
0.0400266
2.27989e-05
0.0400265
1.3331e-05
0.0400299
7.70516e-06
0.0400289
0.0400293
-1.46208e-05
0.0400697
-2.92422e-05
0.0400695
-4.38841e-05
0.0400695
-5.65485e-05
0.0400693
-7.32459e-05
0.040071
-8.59533e-05
0.0400686
-0.000102667
0.04007
-0.000115337
0.0400671
-0.000129948
0.0400679
-0.000144417
0.0400662
-0.000158671
0.0400641
-0.000162588
0.0400613
-0.000174084
0.0400677
-0.000179052
0.0400673
-0.000183085
0.0400977
-0.0002102
0.0400339
-0.000222124
0.0400364
-0.000228621
0.0400338
-0.000229434
0.04003
-0.000206301
0.0400389
-0.000236658
0.0400648
-0.000250691
0.0400102
-0.000250088
0.0399807
-0.000244669
0.0399648
-0.000236365
0.0399508
-0.000224999
0.0399365
-0.000211279
0.0399241
-0.000194864
0.0399139
-0.00017783
0.0399204
-0.000163053
0.0399615
-0.000142833
0.0399054
-0.000120311
0.0398852
-9.76979e-05
0.0398821
-7.49235e-05
0.0398826
-5.22423e-05
0.0398854
-3.1468e-05
0.0398911
-1.41406e-05
0.0398979
5.45982e-06
0.0399041
2.11579e-05
0.0399154
3.28327e-05
0.0399255
4.64213e-05
0.0399341
5.59364e-05
0.0399468
6.14232e-05
0.0399576
6.89583e-05
0.039966
7.06597e-05
0.0399801
6.06521e-05
0.0400037
3.71127e-05
0.0400446
5.40667e-05
0.040027
7.1717e-05
0.0400126
7.02191e-05
0.0400095
6.56978e-05
0.0400137
6.0278e-05
0.0400192
5.40916e-05
0.040024
4.72439e-05
0.0400261
3.98453e-05
0.0400316
3.4001e-05
0.0400325
2.58029e-05
0.0400347
1.73444e-05
0.0400384
8.71448e-06
0.0400375
0.040038
-1.60395e-05
0.0400857
-3.20896e-05
0.0400856
-4.81763e-05
0.0400855
-6.43129e-05
0.0400854
-7.85016e-05
0.0400852
-9.47502e-05
0.0400849
-0.000111043
0.0400863
-0.000127352
0.0400834
-0.00014364
0.0400842
-0.000159844
0.0400824
-0.000173868
0.0400781
-0.000189641
0.040077
-0.000196987
0.0400751
-0.000207866
0.0400782
-0.000188029
0.0400779
-0.000226789
0.0400726
-0.000248407
0.040058
-0.000260525
0.0400459
-0.000266813
0.0400362
-0.000262866
0.0400349
-0.00028019
0.0400822
-0.000286781
0.0400168
-0.000284269
0.0399782
-0.00027842
0.0399589
-0.000269167
0.0399415
-0.000256454
0.0399238
-0.000240465
0.0399081
-0.000221611
0.039895
-0.000201307
0.0399
-0.000183099
0.0399433
-0.000159216
0.0398815
-0.000133101
0.0398591
-0.000106316
0.0398553
-8.00792e-05
0.0398563
-5.59663e-05
0.0398613
-3.00709e-05
0.0398652
-7.97885e-06
0.0398758
1.00072e-05
0.0398861
2.96708e-05
0.0398958
4.49153e-05
0.0399103
5.57031e-05
0.0399233
6.80538e-05
0.0399345
7.60632e-05
0.0399495
8.18366e-05
0.0399603
7.95298e-05
0.0399824
6.93144e-05
0.0400139
6.93383e-05
0.0400446
8.57554e-05
0.0400106
8.47472e-05
0.0400136
8.04778e-05
0.0400138
7.51004e-05
0.0400191
6.87625e-05
0.0400256
6.36029e-05
0.0400292
5.37406e-05
0.040036
4.73017e-05
0.0400381
3.63868e-05
0.0400434
2.71056e-05
0.040044
1.95551e-05
0.0400459
9.82293e-06
0.0400472
0.0400478
-1.74268e-05
0.0401032
-3.28688e-05
0.040101
-5.03769e-05
0.0401031
-6.79624e-05
0.040103
-8.56431e-05
0.0401029
-0.000103427
0.0401026
-0.000121312
0.0401042
-0.000139276
0.0401014
-0.000157288
0.0401022
-0.000173283
0.0400984
-0.000193197
0.040098
-0.000210904
0.0400947
-0.000226258
0.0400904
-0.000233092
0.040085
-0.000245273
0.0400901
-0.000264201
0.0400915
-0.000279915
0.0400737
-0.00029197
0.0400579
-0.000301969
0.0400462
-0.000309522
0.0400425
-0.000320075
0.0400927
-0.000323441
0.0400202
-0.000321181
0.039976
-0.000315006
0.0399528
-0.000304728
0.0399312
-0.00029036
0.0399094
-0.000271774
0.0398895
-0.000249933
0.0398732
-0.000226243
0.0398764
-0.000204032
0.0399211
-0.000175849
0.0398533
-0.000145116
0.0398283
-0.000114162
0.0398243
-8.37315e-05
0.0398259
-5.37265e-05
0.0398313
-2.83182e-05
0.0398398
-1.19177e-06
0.0398487
2.13442e-05
0.0398636
3.90794e-05
0.039878
5.79011e-05
0.0398915
7.18274e-05
0.0399094
8.29162e-05
0.0399234
9.12999e-05
0.0399412
9.11522e-05
0.0399604
7.06903e-05
0.0400029
5.81034e-05
0.0400265
9.34721e-05
0.0400092
9.91204e-05
0.0400049
9.52534e-05
0.0400175
9.20279e-05
0.040017
8.56319e-05
0.0400255
7.82158e-05
0.040033
6.9935e-05
0.0400375
6.09249e-05
0.040045
5.13122e-05
0.0400477
4.32155e-05
0.0400515
3.27365e-05
0.0400545
2.19776e-05
0.0400567
1.10373e-05
0.0400582
0.0400589
-1.87697e-05
0.0401219
-3.7576e-05
0.0401198
-5.64633e-05
0.0401219
-7.54648e-05
0.040122
-9.46079e-05
0.040122
-0.000113912
0.040122
-0.000131379
0.0401216
-0.000151012
0.040121
-0.000168766
0.0401199
-0.000190636
0.0401203
-0.000208494
0.0401159
-0.000228248
0.0401145
-0.000247777
0.04011
-0.000266852
0.0401041
-0.000277227
0.0401005
-0.000294577
0.0401089
-0.000310636
0.0400898
-0.000324994
0.0400723
-0.000337135
0.0400584
-0.000346544
0.0400519
-0.000356664
0.0401028
-0.000363083
0.0400266
-0.00036131
0.0399742
-0.000354927
0.0399464
-0.000343666
0.03992
-0.000327425
0.0398931
-0.000306378
0.0398685
-0.000280817
0.0398476
-0.000252964
0.0398485
-0.000225993
0.0398941
-0.000192749
0.0398201
-0.000157043
0.0397926
-0.000120961
0.0397883
-8.56811e-05
0.0397906
-5.10301e-05
0.0397967
-1.9698e-05
0.0398085
6.78913e-06
0.0398222
3.40508e-05
0.0398363
5.59119e-05
0.0398562
7.43026e-05
0.0398731
8.92606e-05
0.0398944
0.000100933
0.0399117
0.000107502
0.0399346
9.5236e-05
0.0399727
7.04248e-05
0.0400277
0.000101097
0.0399958
0.000115617
0.0399947
0.000112313
0.0400082
0.000111372
0.0400184
0.000102988
0.0400254
9.73723e-05
0.0400311
8.87084e-05
0.0400417
7.91469e-05
0.040047
7.08413e-05
0.0400533
5.79152e-05
0.0400606
4.64994e-05
0.0400629
3.47006e-05
0.0400663
2.46255e-05
0.0400668
1.23627e-05
0.0400704
0.0400712
-1.80439e-05
0.04014
-4.01579e-05
0.040142
-6.03719e-05
0.0401422
-7.87325e-05
0.0401404
-9.92974e-05
0.0401426
-0.000120086
0.0401427
-0.000141138
0.0401427
-0.000162441
0.0401423
-0.00018399
0.0401415
-0.000203741
0.0401401
-0.000227648
0.0401398
-0.000249587
0.0401364
-0.000269413
0.0401298
-0.000290924
0.0401256
-0.000309894
0.0401194
-0.000323897
0.0401229
-0.000344664
0.0401105
-0.000359686
0.0400873
-0.000374404
0.0400731
-0.000384207
0.0400617
-0.000380388
0.040099
-0.000402215
0.0400484
-0.00040525
0.0399772
-0.000398873
0.03994
-0.000386663
0.0399078
-0.000368444
0.0398749
-0.000344298
0.0398443
-0.000314891
0.0398182
-0.000281851
0.0398155
-0.000249263
0.0398615
-0.000209979
0.0397808
-0.000168099
0.0397507
-0.000125797
0.039746
-8.48512e-05
0.0397497
-4.7282e-05
0.0397591
-9.53611e-06
0.0397707
2.26185e-05
0.03979
5.07951e-05
0.0398082
7.48267e-05
0.0398321
9.4699e-05
0.0398532
0.00011054
0.0398786
0.000120572
0.0399017
0.00012507
0.0399301
0.000114391
0.0399834
0.000126804
0.0400153
0.000134525
0.0399881
0.000134004
0.0399952
0.000127525
0.0400147
0.000125218
0.0400207
0.000119447
0.0400312
0.000110407
0.0400402
0.000100295
0.0400518
8.92777e-05
0.040058
7.75066e-05
0.0400651
6.7135e-05
0.040071
5.4267e-05
0.0400758
4.10219e-05
0.0400795
2.54975e-05
0.0400823
1.38022e-05
0.0400821
0.040085
-2.1256e-05
0.0401612
-4.25879e-05
0.0401633
-6.20482e-05
0.0401616
-8.5726e-05
0.0401641
-0.000105645
0.0401625
-0.000127883
0.040165
-0.000150468
0.0401653
-0.000173426
0.0401653
-0.000196761
0.0401648
-0.000220445
0.0401637
-0.000242452
0.0401618
-0.000266678
0.0401607
-0.000290972
0.0401541
-0.000315183
0.0401498
-0.00033898
0.0401432
-0.000362043
0.040146
-0.000375908
0.0401244
-0.000398101
0.0401095
-0.000411962
0.040087
-0.000418846
0.0400686
-0.00038789
0.0400681
-0.000431446
0.040092
-0.000451727
0.0399975
-0.000447674
0.039936
-0.000434644
0.0398947
-0.000414317
0.0398546
-0.000386695
0.0398167
-0.000352257
0.0397838
-0.000313504
0.0397767
-0.000274107
0.0398221
-0.000227562
0.0397342
-0.00017808
0.0397012
-0.000128818
0.0396967
-8.12279e-05
0.0397021
-3.57798e-05
0.0397136
2.97839e-06
0.039732
4.1143e-05
0.0397519
7.03898e-05
0.0397789
9.85538e-05
0.039804
0.000117759
0.039834
0.000136233
0.0398601
0.000142337
0.0398956
0.000118543
0.0399539
0.000113155
0.0399888
0.000150312
0.0399781
0.000160732
0.0399777
0.000156763
0.0399992
0.000150742
0.0400207
0.000142849
0.0400286
0.000135451
0.0400386
0.000122771
0.0400529
0.000113011
0.0400615
0.000100353
0.0400707
8.69585e-05
0.0400785
7.29699e-05
0.040085
5.85097e-05
0.0400902
4.56936e-05
0.0400923
3.06101e-05
0.0400974
1.53566e-05
0.0400974
0.0401004
-2.23655e-05
0.0401836
-4.48289e-05
0.0401858
-6.74618e-05
0.0401842
-8.83372e-05
0.0401849
-0.00011356
0.0401878
-0.000135161
0.0401866
-0.000159231
0.0401893
-0.000183805
0.0401899
-0.000208914
0.0401899
-0.000234561
0.0401894
-0.000260723
0.0401879
-0.000285325
0.0401853
-0.000314276
0.040183
-0.000339357
0.0401749
-0.00036633
0.0401702
-0.000392785
0.0401724
-0.000418293
0.0401499
-0.000434225
0.0401254
-0.000455896
0.0401086
-0.000472405
0.0400851
-0.000472786
0.0400684
-0.000495352
0.0401145
-0.000507626
0.0400098
-0.000502446
0.0399308
-0.000488856
0.0398811
-0.000466268
0.039832
-0.000434669
0.0397851
-0.000394784
0.0397439
-0.000348662
0.0397306
-0.000300963
0.0397744
-0.00024554
0.0396788
-0.000187116
0.0396428
-0.000129446
0.039639
-7.38085e-05
0.0396464
-2.15389e-05
0.0396614
2.4839e-05
0.0396856
6.53809e-05
0.0397113
9.97514e-05
0.0397446
0.00012795
0.0397758
0.000150228
0.0398117
0.000162999
0.0398473
0.000156804
0.0399018
0.000132305
0.0399784
0.000167457
0.0399536
0.000187092
0.0399585
0.000185857
0.0399789
0.000178116
0.0400069
0.00017217
0.0400267
0.000164392
0.0400364
0.000151084
0.0400519
0.000140506
0.0400634
0.000126874
0.0400752
0.000112379
0.0400852
9.71834e-05
0.0400937
8.34346e-05
0.0400987
6.72411e-05
0.0401064
4.87084e-05
0.0401109
3.39468e-05
0.0401121
1.50175e-05
0.0401163
0.0401154
-2.33594e-05
0.0402069
-4.48294e-05
0.0402072
-7.05273e-05
0.0402099
-9.45202e-05
0.0402089
-0.000116906
0.0402101
-0.00014381
0.0402135
-0.000167263
0.0402128
-0.000193398
0.040216
-0.000218226
0.0402148
-0.000245815
0.040217
-0.000274148
0.0402163
-0.000303236
0.0402143
-0.000332954
0.0402128
-0.00036316
0.0402051
-0.000393608
0.0402007
-0.000421916
0.0402007
-0.000451609
0.0401796
-0.000482067
0.0401559
-0.000502319
0.0401289
-0.000523473
0.0401063
-0.000538161
0.0400831
-0.000536868
0.0401132
-0.000562047
0.040035
-0.000564494
0.0399332
-0.0005508
0.0398674
-0.000526025
0.0398072
-0.000489903
0.039749
-0.000442978
0.039697
-0.000388286
0.0396759
-0.000330394
0.0397165
-0.00026402
0.0396124
-0.000194803
0.0395736
-0.000126338
0.0395706
-6.13696e-05
0.0395815
-3.35685e-06
0.0396034
5.1329e-05
0.0396309
9.45832e-05
0.0396681
0.00013408
0.0397051
0.00016007
0.0397498
0.000177031
0.0397948
0.000187561
0.0398368
0.000188475
0.0399009
0.000204336
0.0399625
0.000217718
0.0399402
0.00021945
0.0399568
0.000210107
0.0399883
0.000200199
0.0400169
0.000195912
0.040031
0.000183861
0.0400484
0.000172346
0.0400634
0.000157606
0.0400782
0.000141873
0.0400909
0.000125333
0.0401017
0.000110173
0.0401088
9.04911e-05
0.0401184
7.4431e-05
0.0401225
5.6071e-05
0.0401292
3.75026e-05
0.0401307
1.87987e-05
0.040135
0.0401342
-2.42176e-05
0.0402312
-4.85806e-05
0.0402316
-7.11759e-05
0.0402325
-9.61465e-05
0.0402339
-0.000123613
0.0402376
-0.000147655
0.0402375
-0.00017442
0.0402396
-0.000202004
0.0402436
-0.000230498
0.0402433
-0.00025998
0.0402465
-0.000290503
0.0402468
-0.000322084
0.0402459
-0.000352676
0.0402434
-0.000386177
0.0402386
-0.000418423
0.0402329
-0.000451122
0.0402334
-0.000487558
0.040216
-0.000521234
0.0401896
-0.00055324
0.0401609
-0.000574175
0.0401272
-0.000588879
0.0400978
-0.000555373
0.0400797
-0.000610247
0.0400898
-0.000633325
0.0399563
-0.000622329
0.0398564
-0.000595549
0.0397805
-0.000554111
0.0397075
-0.000499396
0.0396422
-0.000433598
0.0396101
-0.000362861
0.0396458
-0.000282828
0.0395324
-0.000199828
0.0394906
-0.000118899
0.0394896
-4.29937e-05
0.0395056
2.64401e-05
0.0395339
8.62485e-05
0.0395711
0.000136341
0.039618
0.00017277
0.0396686
0.000190146
0.0397324
0.000189266
0.0397956
0.00018503
0.039841
0.000196275
0.0398896
0.000247593
0.0399112
0.000256464
0.0399313
0.000251585
0.0399617
0.000241563
0.0399983
0.000232844
0.0400256
0.00022191
0.0400419
0.000209262
0.0400611
0.000193213
0.0400795
0.000176039
0.0400954
0.00015797
0.040109
0.000141203
0.0401185
0.000119871
0.0401302
0.000102127
0.0401361
8.00458e-05
0.0401446
6.17409e-05
0.0401475
3.9253e-05
0.0401532
2.06743e-05
0.0401536
0.0401549
-2.49186e-05
0.0402561
-5.00082e-05
0.0402567
-7.53752e-05
0.0402579
-0.000101172
0.0402597
-0.000125517
0.0402619
-0.000152581
0.0402646
-0.000180496
0.0402675
-0.000209392
0.0402725
-0.000239433
0.0402733
-0.000270715
0.0402777
-0.00030134
0.0402774
-0.000335402
0.04028
-0.000370972
0.0402789
-0.000407989
0.0402756
-0.00044438
0.0402693
-0.000475955
0.040265
-0.000519697
0.0402598
-0.000563527
0.0402334
-0.000602301
0.0401997
-0.000638637
0.0401635
-0.000660659
0.0401199
-0.00067416
0.0400932
-0.000703539
0.0401192
-0.000715342
0.0399681
-0.000706567
0.0398477
-0.000678551
0.0397524
-0.000631431
0.0396604
-0.000566309
0.0395771
-0.000487028
0.0395308
-0.000399532
0.0395583
-0.000302317
0.0394352
-0.000202659
0.039391
-0.000105948
0.0393929
-1.64444e-05
0.0394161
6.36282e-05
0.0394539
0.000129489
0.0395052
0.000182613
0.0395649
0.000209578
0.0396417
0.000227432
0.0397146
0.000251485
0.0397716
0.0002514
0.0398411
0.000279769
0.0398613
0.000300122
0.0398909
0.000299829
0.0399316
0.000287668
0.0399738
0.00027238
0.0400136
0.000264266
0.0400337
0.000250176
0.040056
0.000232524
0.0400787
0.000213612
0.0400984
0.000195731
0.0401132
0.000175082
0.0401296
0.000153878
0.0401397
0.00013223
0.0401518
0.000110261
0.0401581
9.00633e-05
0.0401647
6.56798e-05
0.0401719
4.51989e-05
0.0401737
2.26382e-05
0.0401762
0.0401775
-2.54419e-05
0.0402815
-5.10797e-05
0.0402823
-7.70347e-05
0.0402839
-0.000101454
0.0402841
-0.000128532
0.040289
-0.000156426
0.0402925
-0.000187324
0.0402984
-0.000215359
0.0403005
-0.000246758
0.0403047
-0.000277672
0.0403087
-0.000314322
0.0403141
-0.000348803
0.0403145
-0.000387274
0.0403174
-0.000427851
0.0403162
-0.000470486
0.0403119
-0.000511092
0.0403056
-0.000559103
0.0403078
-0.000606086
0.0402804
-0.000653168
0.0402467
-0.000698672
0.040209
-0.000740402
0.0401616
-0.000765458
0.0401183
-0.000783787
0.0401375
-0.000809727
0.039994
-0.000805341
0.0398433
-0.000776558
0.0397236
-0.000723183
0.039607
-0.000645583
0.0394995
-0.000547042
0.0394323
-0.000437504
0.0394488
-0.000320356
0.0393181
-0.000199297
0.0392699
-8.37824e-05
0.0392774
2.13197e-05
0.039311
0.000112045
0.0393631
0.000188584
0.0394287
0.000230186
0.0395233
0.000256383
0.0396155
0.000291309
0.0396796
0.000322903
0.03974
0.00034133
0.0398227
0.000353911
0.0398487
0.00035238
0.0398924
0.000343959
0.0399401
0.000329647
0.0399881
0.000316207
0.040027
0.000300302
0.0400496
0.000282614
0.0400737
0.000261547
0.0400998
0.000239439
0.0401205
0.000216562
0.0401361
0.000193122
0.040153
0.000169281
0.0401635
0.000147166
0.0401739
0.000120838
0.0401844
9.63903e-05
0.0401892
7.38648e-05
0.0401944
4.92866e-05
0.0401983
2.4675e-05
0.0402008
0.0402022
-2.57671e-05
0.0403073
-4.97374e-05
0.0403063
-7.6075e-05
0.0403102