/*--------------------------------*- C++ -*----------------------------------*\
  =========                 |
  \\      /  F ield         | OpenFOAM: The Open Source CFD Toolbox
   \\    /   O peration     | Website:  https://openfoam.org
    \\  /    A nd           | Version:  12
     \\/     M anipulation  |
\*---------------------------------------------------------------------------*/
FoamFile
{
    format      ascii;
    class       volVectorField;
    location    "480";
    object      U;
}
// * * * * * * * * * * * * * * * * * * * * * * * * * * * * * * * * * * * * * //

dimensions      [0 1 -1 0 0 0 0];

internalField   nonuniform List<vector> 
16227
(
(2 -8.25599e-06 -7.14548e-23)
(2 -2.4702e-05 7.18522e-23)
(2 -4.10422e-05 -7.1853e-23)
(2 -5.72522e-05 -7.24833e-23)
(2 -7.32654e-05 7.24841e-23)
(2 -8.90086e-05 7.35088e-23)
(2 -0.000104417 6.73395e-25)
(2 -0.000119403 -1.49099e-22)
(2 -0.000133864 2.26528e-22)
(2 -0.000147676 -1.51592e-22)
(2 -0.000160703 0)
(2 -0.00017281 1.56638e-22)
(2 -0.000183878 0)
(2 -0.00019378 0)
(2 -0.000202318 0)
(2 -0.000209328 0)
(2 -0.00021464 0)
(2 -0.000218089 0)
(2 -0.000219516 0)
(2 -0.000218786 0)
(2 -0.000215791 -1.8249e-22)
(2 -0.000210457 -2.81176e-24)
(2 -0.000202749 1.85302e-22)
(2 -0.000192671 0)
(2 -0.00018028 -1.93093e-22)
(2 -0.000165691 1.93094e-22)
(2 -0.000149073 0)
(2 -0.000130636 9.92653e-23)
(2 -0.00011066 0)
(2 -8.94779e-05 0)
(2 -6.7438e-05 0)
(2 -4.4914e-05 0)
(2 -2.22788e-05 0)
(2 7.41588e-08 2.04819e-22)
(2 2.17722e-05 -5.79846e-26)
(2 4.24649e-05 -2.04766e-22)
(2 6.18371e-05 0)
(2 7.96144e-05 2.03074e-22)
(2 9.55673e-05 -1.00809e-24)
(2 0.000109517 -2.02068e-22)
(2 0.000121334 0)
(2 0.000130936 0)
(2 0.000138287 0)
(2 0.000143391 0)
(2 0.000146292 0)
(2 0.00014706 0)
(2 0.000145793 0)
(2 0.000142613 0)
(2 0.000137648 0)
(2 0.000131036 0)
(2 0.00012293 0)
(2 0.000113481 0)
(2 0.000102855 0)
(2 9.11914e-05 0)
(2 7.86378e-05 -8.93613e-23)
(2 6.5331e-05 8.93652e-23)
(2 5.14212e-05 0)
(2 3.70565e-05 0)
(2 2.23712e-05 0)
(2 7.48136e-06 8.80965e-23)
(2.00004 -3.36283e-05 2.12707e-25)
(2.00004 -0.000100685 0)
(2.00004 -0.000167428 0)
(2.00004 -0.000233783 0)
(2.00004 -0.000299508 -1.22633e-22)
(2.00004 -0.000364407 0)
(2.00004 -0.000428234 0)
(2.00004 -0.000490701 -3.78906e-22)
(2.00003 -0.000551436 2.5316e-22)
(2.00003 -0.000610032 -5.18705e-22)
(2.00003 -0.000665969 2.09199e-21)
(2.00003 -0.000718708 -1.32071e-21)
(2.00003 -0.000767837 6.67596e-22)
(2.00002 -0.000812812 0)
(2.00002 -0.000852892 0)
(2.00002 -0.000887422 0)
(2.00001 -0.000915707 0)
(2.00001 -0.000937063 0)
(2 -0.00095083 0)
(2 -0.000956407 0)
(1.99999 -0.000953272 0)
(1.99999 -0.000941072 0)
(1.99998 -0.000919574 0)
(1.99997 -0.000888672 0)
(1.99997 -0.000848486 0)
(1.99996 -0.000799342 -3.30543e-22)
(1.99996 -0.000741789 3.30553e-22)
(1.99996 -0.000676561 -1.67821e-22)
(1.99995 -0.000604635 0)
(1.99995 -0.000527182 0)
(1.99995 -0.000445503 0)
(1.99995 -0.000360994 0)
(1.99995 -0.000275082 0)
(1.99995 -0.000189259 0)
(1.99995 -0.000104963 0)
(1.99995 -2.35632e-05 -3.45999e-22)
(1.99996 5.36882e-05 9.89408e-25)
(1.99996 0.000125686 1.3814e-24)
(1.99996 0.000191489 1.73525e-24)
(1.99997 0.000250342 3.41939e-22)
(1.99997 0.000301673 3.37588e-22)
(1.99998 0.000345094 -3.37595e-22)
(1.99998 0.000380383 0)
(1.99999 0.000407495 0)
(1.99999 0.000426501 0)
(2 0.000437617 0)
(2 0.000441156 0)
(2.00001 0.000437517 0)
(2.00001 0.000427156 0)
(2.00002 0.000410576 0)
(2.00002 0.000388317 3.09949e-22)
(2.00002 0.000360924 -6.18474e-22)
(2.00002 0.000328995 -6.10938e-22)
(2.00003 0.000293085 6.10959e-22)
(2.00003 0.000253715 -6.04023e-22)
(2.00003 0.000211446 9.04684e-22)
(2.00003 0.000166842 -3.00783e-22)
(2.00003 0.000120443 1.49514e-22)
(2.00003 7.27869e-05 -1.49517e-22)
(2.00003 2.43504e-05 -1.78109e-25)
(2.00013 -6.26239e-05 1.20433e-22)
(2.00013 -0.000187526 0)
(2.00013 -0.000311961 0)
(2.00013 -0.000435807 0)
(2.00013 -0.000558686 1.22616e-22)
(2.00013 -0.000680256 -2.47764e-22)
(2.00012 -0.000800138 -2.29667e-24)
(2.00012 -0.000917824 3.75684e-22)
(2.00012 -0.00103269 1.26777e-22)
(2.00011 -0.00114403 5.17651e-22)
(2.00011 -0.00125098 -5.14408e-22)
(2.0001 -0.00135242 -1.05327e-21)
(2.00009 -0.00144767 1.33629e-22)
(2.00008 -0.00153578 0)
(2.00007 -0.00161533 1.38269e-22)
(2.00006 -0.00168513 0)
(2.00005 -0.00174386 0)
(2.00003 -0.00179024 0)
(2.00002 -0.00182295 -5.9725e-22)
(2 -0.00184082 5.97188e-22)
(1.99998 -0.00184278 -3.08571e-22)
(1.99997 -0.00182813 3.08575e-22)
(1.99995 -0.00179634 0)
(1.99993 -0.00174707 -3.22714e-22)
(1.99991 -0.00168045 -4.26997e-24)
(1.99989 -0.00159696 3.27015e-22)
(1.99988 -0.0014975 0)
(1.99986 -0.00138337 0)
(1.99985 -0.00125622 0)
(1.99984 -0.00111814 0)
(1.99984 -0.000971449 1.72451e-22)
(1.99983 -0.000818734 -3.44814e-22)
(1.99983 -0.000662595 0)
(1.99983 -0.00050576 0)
(1.99984 -0.000350876 3.47278e-22)
(1.99984 -0.000200485 -3.47306e-22)
(1.99985 -5.69139e-05 0)
(1.99986 7.77824e-05 0)
(1.99988 0.000201811 0)
(1.99989 0.000313738 0)
(1.99991 0.000412453 0)
(1.99992 0.000497183 0)
(1.99994 0.000567487 -1.67108e-22)
(1.99996 0.000623205 0)
(1.99997 0.000664436 0)
(1.99999 0.000691512 0)
(2 0.000704964 -1.59611e-22)
(2.00001 0.000705464 3.20666e-22)
(2.00003 0.000693811 0)
(2.00004 0.000670909 1.5665e-22)
(2.00005 0.000637695 0)
(2.00006 0.00059518 3.08489e-22)
(2.00007 0.000544401 6.10236e-22)
(2.00007 0.000486339 1.4813e-22)
(2.00008 0.000421965 -6.06512e-22)
(2.00009 0.000352315 3.00264e-22)
(2.00009 0.000278397 -3.00372e-22)
(2.00009 0.000201176 0)
(2.00009 0.000121649 0)
(2.0001 4.06917e-05 -1.48573e-22)
(2.00029 -9.35397e-05 0)
(2.00029 -0.000280096 0)
(2.00028 -0.000466084 -1.20382e-22)
(2.00028 -0.000651338 0)
(2.00028 -0.000835343 -1.22416e-22)
(2.00028 -0.00101768 1.22404e-22)
(2.00027 -0.00119779 0)
(2.00027 -0.001375 -3.78495e-22)
(2.00026 -0.0015484 3.76551e-22)
(2.00025 -0.00171704 0)
(2.00024 -0.00187973 -5.23046e-22)
(2.00022 -0.00203465 -1.57913e-21)
(2.00021 -0.0021809 -2.67674e-22)
(2.00019 -0.00231706 0)
(2.00017 -0.00244101 -1.382e-22)
(2.00014 -0.00255091 0)
(2.00012 -0.00264481 0)
(2.00009 -0.00272074 1.17354e-21)
(2.00005 -0.00277671 -1.17381e-21)
(2.00002 -0.0028107 0)
(1.99998 -0.00282117 -3.08667e-22)
(1.99994 -0.002807 -5.01345e-24)
(1.9999 -0.00276716 -4.86701e-24)
(1.99986 -0.00270106 3.18581e-22)
(1.99982 -0.00260874 0)
(1.99978 -0.00249084 0)
(1.99975 -0.0023486 0)
(1.99972 -0.00218384 1.69439e-22)
(1.99969 -0.00199901 1.19419e-24)
(1.99967 -0.00179711 1.71997e-22)
(1.99965 -0.00158167 2.04546e-25)
(1.99964 -0.00135646 0)
(1.99964 -0.00112541 0)
(1.99964 -0.000892603 0)
(1.99965 -0.000662011 -3.48495e-22)
(1.99966 -0.000437445 6.79553e-25)
(1.99968 -0.000222423 1.13135e-24)
(1.9997 -2.00495e-05 1.54576e-24)
(1.99973 0.000166972 6.88653e-22)
(1.99976 0.0003365 -3.43394e-22)
(1.99979 0.000486831 0)
(1.99983 0.000616798 -1.68847e-22)
(1.99986 0.000725711 1.67118e-22)
(1.99989 0.000813307 0)
(1.99993 0.000879737 0)
(1.99996 0.000925458 0)
(1.99999 0.000951222 -1.61047e-22)
(2.00002 0.000958037 0)
(2.00004 0.000947047 0)
(2.00007 0.000919557 -3.13037e-22)
(2.00009 0.000876978 -6.18169e-22)
(2.00011 0.000820763 1.23143e-21)
(2.00013 0.000752454 -6.13494e-22)
(2.00015 0.0006734 -7.57155e-22)
(2.00016 0.000585125 6.05204e-22)
(2.00017 0.00048912 0)
(2.00018 0.000386861 0)
(2.00019 0.000279731 1.48744e-22)
(2.00019 0.000169221 0)
(2.00019 5.65888e-05 0)
(2.00051 -0.000125984 0)
(2.00051 -0.00037726 0)
(2.0005 -0.000627912 7.72983e-25)
(2.0005 -0.000877737 0)
(2.0005 -0.00112614 0)
(2.00049 -0.0013726 -2.44449e-22)
(2.00048 -0.00161642 -3.72726e-22)
(2.00047 -0.00185677 3.70523e-22)
(2.00046 -0.00209251 0)
(2.00045 -0.00232237 0)
(2.00043 -0.00254492 -5.20714e-22)
(2.0004 -0.0027576 3.14983e-21)
(2.00038 -0.00295929 -2.65531e-22)
(2.00035 -0.00314788 2.68461e-22)
(2.00031 -0.00332073 0)
(2.00027 -0.00347526 0)
(2.00022 -0.00360873 5.75526e-22)
(2.00017 -0.00371853 1.7579e-21)
(2.00011 -0.00380189 -8.76707e-22)
(2.00005 -0.00385552 0)
(1.99998 -0.00387754 0)
(1.99991 -0.00386644 0)
(1.99984 -0.00382042 0)
(1.99977 -0.00373857 -3.24033e-22)
(1.9997 -0.00362082 -4.5939e-24)
(1.99964 -0.0034679 -4.2674e-24)
(1.99957 -0.00328137 3.33e-22)
(1.99952 -0.00306366 1.69883e-22)
(1.99947 -0.00281798 1.10143e-24)
(1.99943 -0.00254839 -1.71604e-22)
(1.99939 -0.00225969 5.21856e-22)
(1.99937 -0.00195706 -3.47887e-22)
(1.99937 -0.00164588 -3.50135e-22)
(1.99937 -0.0013317 3.50191e-22)
(1.99938 -0.00102 3.50238e-22)
(1.9994 -0.000715979 -3.50293e-22)
(1.99943 -0.000424455 0)
(1.99947 -0.000149669 0)
(1.99952 0.000104709 -3.44609e-22)
(1.99957 0.000335769 3.44626e-22)
(1.99963 0.000541218 3.3954e-22)
(1.99968 0.00071948 -1.70666e-22)
(1.99974 0.000869632 0)
(1.9998 0.000991379 0)
(1.99986 0.0010849 0)
(1.99991 0.00115085 0)
(1.99997 0.00119025 0)
(2.00002 0.00120447 0)
(2.00006 0.00119505 -1.57643e-22)
(2.00011 0.00116375 -7.78027e-22)
(2.00015 0.00111245 6.22062e-22)
(2.00018 0.00104312 6.11729e-22)
(2.00021 0.000957731 -9.16078e-22)
(2.00024 0.000858121 6.03317e-22)
(2.00026 0.000746346 -6.03307e-22)
(2.00028 0.000624364 0)
(2.0003 0.000494124 0)
(2.00031 0.000357438 -6.40134e-25)
(2.00032 0.000216286 0)
(2.00032 7.23148e-05 0)
(2.00079 -0.000159557 -1.1769e-22)
(2.00079 -0.000477835 0)
(2.00079 -0.000795487 1.52695e-25)
(2.00078 -0.00111229 1.19401e-22)
(2.00078 -0.00142761 0)
(2.00077 -0.00174086 9.18588e-25)
(2.00076 -0.00205122 -2.46033e-22)
(2.00074 -0.00235768 2.45958e-22)
(2.00073 -0.00265893 0)
(2.0007 -0.0029534 0)
(2.00068 -0.00323945 2.5608e-22)
(2.00064 -0.00351381 1.03996e-21)
(2.0006 -0.00377484 -5.31027e-22)
(2.00055 -0.00401999 2.68767e-22)
(2.0005 -0.00424602 0)
(2.00043 -0.0044495 -2.81803e-22)
(2.00036 -0.00462684 2.81882e-22)
(2.00028 -0.00477478 1.01763e-23)
(2.00019 -0.00488934 -1.318e-21)
(2.0001 -0.00496604 -3.03361e-22)
(1.99999 -0.00500258 3.00888e-22)
(1.99989 -0.00499687 -5.46908e-24)
(1.99977 -0.00494618 3.14605e-22)
(1.99966 -0.0048493 0)
(1.99955 -0.00470584 0)
(1.99944 -0.00451657 0)
(1.99934 -0.00428339 0)
(1.99925 -0.00400935 -1.69826e-22)
(1.99917 -0.00369857 0)
(1.99911 -0.00335625 0)
(1.99906 -0.00298861 5.2681e-22)
(1.99903 -0.00260249 -3.50241e-22)
(1.99901 -0.00220483 0)
(1.99901 -0.00180294 0)
(1.99903 -0.00140394 0)
(1.99906 -0.00101455 0)
(1.99911 -0.000641056 3.50263e-22)
(1.99917 -0.000288931 -1.88607e-24)
(1.99924 3.71319e-05 -5.22694e-22)
(1.99932 0.000333392 0)
(1.99941 0.00059699 0)
(1.99949 0.000825957 3.3749e-22)
(1.99958 0.00101919 -5.05552e-22)
(1.99968 0.00117637 0)
(1.99976 0.00129782 0)
(1.99985 0.00138444 0)
(1.99993 0.00143761 0)
(2.00001 0.0014591 0)
(2.00008 0.0014509 4.71019e-22)
(2.00015 0.00141529 1.2398e-21)
(2.00021 0.00135469 -1.24082e-21)
(2.00027 0.00127162 6.09709e-22)
(2.00031 0.0011684 -3.05584e-22)
(2.00036 0.00104751 0)
(2.00039 0.000911508 1.49317e-22)
(2.00042 0.000762832 0)
(2.00045 0.000603866 0)
(2.00046 0.000436912 -1.48089e-22)
(2.00047 0.00026441 0)
(2.00048 8.83976e-05 1.46275e-22)
(2.00115 -0.000193992 1.13447e-24)
(2.00114 -0.000581053 0)
(2.00114 -0.000967535 0)
(2.00113 -0.00135325 -1.18003e-22)
(2.00113 -0.00173755 0)
(2.00112 -0.00211979 1.2075e-22)
(2.0011 -0.00249911 -1.21996e-22)
(2.00108 -0.0028743 2.44014e-22)
(2.00106 -0.00324394 0)
(2.00103 -0.00360612 -5.06606e-22)
(2.00099 -0.00395904 2.50579e-22)
(2.00094 -0.00429914 5.49198e-24)
(2.00089 -0.00462344 1.05442e-21)
(2.00082 -0.00492927 -5.38927e-22)
(2.00074 -0.00521275 -5.0661e-24)
(2.00065 -0.00546956 -1.47376e-22)
(2.00055 -0.00569526 2.85447e-21)
(2.00043 -0.00588575 -1.1233e-21)
(2.0003 -0.00603563 -1.9108e-21)
(2.00016 -0.00613916 2.69476e-21)
(2.00002 -0.00619349 3.03852e-22)
(1.99986 -0.00619563 -3.15236e-22)
(1.9997 -0.00614182 -5.64972e-24)
(1.99953 -0.00603036 3.20961e-22)
(1.99937 -0.00586046 0)
(1.99921 -0.0056329 0)
(1.99906 -0.00534992 0)
(1.99893 -0.00501521 0)
(1.99881 -0.00463388 1.74121e-22)
(1.99871 -0.00421241 0)
(1.99864 -0.00375878 -5.27642e-22)
(1.99859 -0.00328162 0)
(1.99856 -0.00278977 3.55475e-22)
(1.99857 -0.00229247 -3.55566e-22)
(1.99859 -0.00179876 3.55264e-22)
(1.99864 -0.00131714 -1.09651e-24)
(1.99871 -0.000855501 -7.07011e-22)
(1.99879 -0.000420617 3.52733e-22)
(1.9989 -1.8302e-05 -1.73859e-22)
(1.99901 0.000346837 3.48161e-22)
(1.99913 0.000671401 1.72271e-22)
(1.99926 0.000953057 0)
(1.99939 0.00119062 1.68119e-22)
(1.99952 0.00138384 0)
(1.99965 0.00153323 0)
(1.99977 0.00164005 1.62619e-22)
(1.99989 0.00170614 -1.60654e-22)
(2 0.00173373 0)
(2.00011 0.00172539 1.8778e-21)
(2.0002 0.00168401 1.22384e-21)
(2.00029 0.00161252 -2.4744e-21)
(2.00037 0.00151396 -6.07076e-22)
(2.00044 0.00139118 1.35984e-21)
(2.0005 0.00124734 -6.02083e-22)
(2.00055 0.00108543 -1.49308e-22)
(2.00059 0.000908395 0)
(2.00062 0.000719088 2.93929e-22)
(2.00065 0.000520276 -1.47102e-22)
(2.00067 0.000314864 0)
(2.00067 0.000105268 -9.98489e-25)
(2.00157 -0.000229053 1.16523e-22)
(2.00156 -0.000686239 0)
(2.00156 -0.00114298 0)
(2.00155 -0.00159911 1.16889e-22)
(2.00154 -0.00205406 -8.54979e-25)
(2.00153 -0.00250716 1.18545e-22)
(2.00151 -0.00295755 -1.19452e-22)
(2.00149 -0.00340388 -3.66391e-22)
(2.00146 -0.00384461 2.44308e-22)
(2.00142 -0.00427754 -5.02167e-22)
(2.00137 -0.00470059 -1.3377e-22)
(2.00131 -0.00511018 7.65793e-22)
(2.00123 -0.00550203 -2.09846e-21)
(2.00114 -0.00587284 -1.07471e-21)
(2.00104 -0.00621854 1.07484e-21)
(2.00092 -0.00653366 -1.38682e-22)
(2.00078 -0.00681295 3.3991e-21)
(2.00062 -0.00705078 -5.58854e-22)
(2.00045 -0.00724052 -5.89132e-22)
(2.00026 -0.0073752 -1.80711e-21)
(2.00005 -0.00745097 3.07204e-22)
(1.99983 -0.00746374 0)
(1.99961 -0.00740854 0)
(1.99938 -0.00728293 -3.28e-22)
(1.99915 -0.00708567 -5.53164e-24)
(1.99893 -0.00681739 3.33685e-22)
(1.99873 -0.00648057 0)
(1.99854 -0.00607968 3.47833e-22)
(1.99837 -0.00562097 -5.21916e-22)
(1.99823 -0.00511245 0)
(1.99813 -0.004564 1.75703e-22)
(1.99806 -0.00398653 -7.15037e-22)
(1.99802 -0.00339104 -7.2504e-25)
(1.99802 -0.00278904 7.18421e-22)
(1.99805 -0.00219184 -6.73925e-25)
(1.99812 -0.00160989 -3.5875e-22)
(1.99822 -0.00105291 0)
(1.99834 -0.000529168 3.5325e-22)
(1.99848 -4.56295e-05 -2.89431e-24)
(1.99863 0.000392196 -3.50474e-22)
(1.9988 0.00078042 -3.45527e-22)
(1.99898 0.00111641 0)
(1.99916 0.00139901 0)
(1.99933 0.00162813 -1.66937e-22)
(1.99951 0.00180467 0)
(1.99968 0.00193035 -3.25192e-22)
(1.99984 0.00200755 1.60643e-22)
(1.99999 0.00203912 -3.16759e-22)
(2.00013 0.00202827 -1.87831e-21)
(2.00026 0.00197857 -1.23161e-21)
(2.00038 0.00189371 6.19613e-22)
(2.00049 0.00177699 -5.90781e-24)
(2.00058 0.00163209 -9.04205e-22)
(2.00066 0.00146272 2.98124e-22)
(2.00073 0.00127236 0)
(2.00079 0.0010645 0)
(2.00083 0.000842447 -1.12744e-24)
(2.00087 0.000609419 0)
(2.00089 0.000368779 0)
(2.0009 0.000123302 -1.45263e-22)
(2.00206 -0.000264544 0)
(2.00206 -0.000792786 0)
(2.00205 -0.00132075 1.14566e-22)
(2.00205 -0.00184844 -1.16621e-22)
(2.00203 -0.00237536 0)
(2.00202 -0.00290087 -2.34971e-22)
(2.002 -0.00342414 1.18141e-22)
(2.00197 -0.00394382 1.19365e-22)
(2.00193 -0.00445819 0)
(2.00188 -0.00496485 0)
(2.00182 -0.00546139 -3.79221e-22)
(2.00174 -0.00594424 2.49195e-22)
(2.00165 -0.00640852 1.04662e-21)
(2.00154 -0.00684908 3.15766e-21)
(2.0014 -0.00726194 0)
(2.00124 -0.00764072 -5.48737e-22)
(2.00106 -0.00797923 -2.25544e-21)
(2.00086 -0.00827004 -5.73605e-22)
(2.00063 -0.00850519 -1.18154e-21)
(2.00038 -0.00867618 2.89967e-22)
(2.0001 -0.00877777 -6.19848e-22)
(1.99982 -0.00880457 -6.64256e-24)
(1.99952 -0.00875016 -6.52292e-24)
(1.99921 -0.00861107 3.23583e-22)
(1.9989 -0.00838538 0)
(1.99861 -0.00807336 0)
(1.99833 -0.00767783 0)
(1.99807 -0.00720406 1.75739e-22)
(1.99784 -0.00665959 -1.7793e-22)
(1.99766 -0.00605417 0)
(1.99751 -0.00540011 3.56197e-22)
(1.99742 -0.00471094 -3.61129e-22)
(1.99737 -0.00400026 0)
(1.99737 -0.00328237 0)
(1.99741 -0.00257109 5.45565e-22)
(1.9975 -0.00187927 -3.62798e-22)
(1.99763 -0.00121863 -3.59068e-22)
(1.99779 -0.000599151 7.15535e-22)
(1.99798 -2.89572e-05 -3.56435e-22)
(1.99818 0.000485548 0)
(1.99841 0.00093998 5.18705e-22)
(1.99864 0.00133156 -3.45326e-22)
(1.99888 0.00165931 -1.69692e-22)
(1.99912 0.00192348 3.34232e-22)
(1.99935 0.0021255 0)
(1.99957 0.00226771 1.62577e-22)
(1.99978 0.00235323 -3.20348e-22)
(1.99998 0.00238565 3.16707e-22)
(2.00017 0.00236906 -1.23105e-21)
(2.00034 0.00230764 6.3491e-22)
(2.00049 0.00220567 3.05282e-22)
(2.00063 0.00206721 1.50009e-22)
(2.00075 0.00189672 -1.5001e-22)
(2.00086 0.00169836 -1.48468e-22)
(2.00095 0.00147623 2.92451e-22)
(2.00102 0.00123432 -8.76434e-25)
(2.00108 0.000976372 -2.91129e-22)
(2.00112 0.000706064 1.4376e-22)
(2.00115 0.000427169 0)
(2.00117 0.00014283 0)
(2.00263 -0.00030024 0)
(2.00262 -0.000900006 0)
(2.00262 -0.00149979 -2.27344e-22)
(2.00261 -0.00209976 0)
(2.0026 -0.00269959 0)
(2.00258 -0.00329876 1.67784e-24)
(2.00256 -0.00389646 0)
(2.00252 -0.00449141 -1.19242e-22)
(2.00248 -0.00508187 -1.20836e-22)
(2.00242 -0.00566515 1.20862e-22)
(2.00235 -0.0062386 -4.99279e-22)
(2.00226 -0.00679858 4.99157e-22)
(2.00214 -0.00733989 0)
(2.002 -0.00785554 -3.14378e-21)
(2.00183 -0.00834158 -5.08841e-22)
(2.00164 -0.00879012 5.90044e-22)
(2.00141 -0.00919442 -3.3283e-21)
(2.00115 -0.00954484 1.15219e-21)
(2.00086 -0.00983215 -5.78753e-22)
(2.00053 -0.0100457 0)
(2.00018 -0.0101786 -6.14295e-22)
(1.99981 -0.0102238 0)
(1.99942 -0.0101731 -3.25111e-22)
(1.99902 -0.0100216 3.25201e-22)
(1.99862 -0.00976633 -3.38751e-22)
(1.99823 -0.00940722 1.66919e-22)
(1.99786 -0.0089472 0)
(1.99752 -0.00839239 -1.75691e-22)
(1.99722 -0.00775191 5.38648e-22)
(1.99697 -0.00703763 1.8224e-22)
(1.99678 -0.00626471 -3.71526e-22)
(1.99666 -0.00544991 -1.86684e-22)
(1.99659 -0.00461005 3.67988e-22)
(1.99659 -0.00376267 0)
(1.99665 -0.00292467 1.84564e-22)
(1.99677 -0.00211173 -1.92957e-24)
(1.99694 -0.00133775 -2.64135e-24)
(1.99715 -0.000614684 -3.63258e-22)
(1.99739 4.81168e-05 3.56285e-22)
(1.99766 0.000643361 -5.34235e-22)
(1.99796 0.00116635 1.75532e-22)
(1.99826 0.00161435 0)
(1.99856 0.00198666 1.69708e-22)
(1.99887 0.00228413 -1.6729e-22)
(1.99917 0.00250898 0)
(1.99945 0.00266438 0)
(1.99972 0.00275432 3.20308e-22)
(1.99998 0.00278333 -6.48614e-24)
(2.00021 0.00275653 -1.71272e-23)
(2.00043 0.00267903 1.22506e-21)
(2.00062 0.00255535 3.03821e-22)
(2.0008 0.00239074 1.49075e-22)
(2.00095 0.00219027 1.4738e-22)
(2.00108 0.00195867 -1.31951e-24)
(2.0012 0.00170069 -1.47476e-22)
(2.00129 0.00142078 0)
(2.00136 0.00112309 0)
(2.00142 0.000811767 -2.85943e-22)
(2.00145 0.000490985 0)
(2.00147 0.000164179 0)
(2.00326 -0.000335901 0)
(2.00326 -0.00100723 0)
(2.00325 -0.00167892 6.08278e-25)
(2.00325 -0.00235149 1.12128e-22)
(2.00323 -0.00302475 0)
(2.00322 -0.00369842 1.15014e-22)
(2.00319 -0.00437182 1.15991e-22)
(2.00316 -0.00504376 1.51025e-24)
(2.00311 -0.00571253 1.65834e-24)
(2.00304 -0.00637544 -1.21047e-22)
(2.00296 -0.00702932 1.21012e-22)
(2.00285 -0.0076704 1.23398e-22)
(2.00271 -0.00829378 -2.51805e-22)
(2.00254 -0.00889047 -2.05791e-21)
(2.00234 -0.00945599 -5.39361e-22)
(2.0021 -0.00998198 2.16136e-21)
(2.00182 -0.0104597 1.67624e-21)
(2.0015 -0.0108775 -1.13844e-21)
(2.00113 -0.011225 1.16739e-21)
(2.00073 -0.0114889 1.80054e-21)
(2.00029 -0.0116601 3.02798e-22)
(1.99981 -0.0117292 -4.4346e-24)
(1.99931 -0.0116862 -3.26907e-22)
(1.9988 -0.0115241 6.61603e-22)
(1.99829 -0.0112385 -3.3472e-22)
(1.99779 -0.0108286 1.71886e-22)
(1.99731 -0.0102973 0)
(1.99687 -0.00965172 1.80567e-22)
(1.99649 -0.00890281 1.88527e-22)
(1.99617 -0.00806497 -1.80395e-22)
(1.99592 -0.007157 1.83284e-22)
(1.99576 -0.00619959 1.85181e-22)
(1.99568 -0.00521343 1.85561e-22)
(1.99568 -0.0042202 -3.74856e-22)
(1.99576 -0.00324034 0)
(1.99591 -0.00229291 -3.7087e-22)
(1.99613 -0.00139442 3.13273e-24)
(1.9964 -0.000558915 3.67995e-22)
(1.99672 0.000203003 -3.5989e-22)
(1.99707 0.000883134 3.15908e-24)
(1.99744 0.00147669 2.44019e-24)
(1.99782 0.00198126 -5.18182e-22)
(1.99821 0.00239668 3.44073e-22)
(1.99859 0.00272472 -1.68021e-22)
(1.99897 0.00296859 -1.65059e-22)
(1.99933 0.00313261 -6.4384e-22)
(1.99967 0.00322197 1.91046e-21)
(1.99998 0.00324225 5.67384e-24)
(2.00027 0.00319969 2.49276e-21)
(2.00054 0.00310038 9.10174e-22)
(2.00078 0.00294944 -1.53357e-22)
(2.001 0.00275328 -2.98419e-22)
(2.00118 0.00251757 -1.45972e-22)
(2.00135 0.00224772 1.45978e-22)
(2.00148 0.00194908 -1.44673e-22)
(2.0016 0.00162649 -1.42413e-22)
(2.00169 0.00128461 1.42429e-22)
(2.00175 0.000927947 1.04553e-24)
(2.0018 0.000561045 1.41148e-22)
(2.00182 0.000187623 0)
(2.00397 -0.000371274 0)
(2.00397 -0.00111368 0)
(2.00396 -0.00185694 0)
(2.00396 -0.0026019 -1.10769e-22)
(2.00395 -0.00334868 1.10727e-22)
(2.00393 -0.00409733 -1.12687e-22)
(2.0039 -0.00484732 1.12645e-22)
(2.00387 -0.00559767 0)
(2.00381 -0.00634679 0)
(2.00374 -0.00709208 1.19118e-22)
(2.00364 -0.0078302 -2.4038e-22)
(2.00352 -0.00855672 -2.04384e-24)
(2.00336 -0.00926729 5.09109e-22)
(2.00317 -0.00995229 1.55117e-21)
(2.00293 -0.0106044 1.05896e-21)
(2.00264 -0.0112159 -1.0605e-21)
(2.0023 -0.0117758 -1.10615e-21)
(2.00191 -0.0122706 6.98779e-22)
(2.00147 -0.0126882 -5.7975e-22)
(2.00097 -0.0130121 -4.34618e-24)
(2.00042 -0.0132305 -1.24564e-21)
(1.99984 -0.013331 2.51473e-21)
(1.99921 -0.0133013 -3.20321e-22)
(1.99857 -0.0131317 0)
(1.99792 -0.0128155 0)
(1.99729 -0.0123508 0)
(1.99668 -0.0117404 0)
(1.99612 -0.0109924 -1.80523e-22)
(1.99563 -0.0101201 1.92688e-22)
(1.99523 -0.00914074 3.08601e-24)
(1.99492 -0.00807783 0)
(1.99471 -0.0069569 1.88725e-22)
(1.99461 -0.00580364 -1.92201e-22)
(1.99462 -0.00464463 1.92954e-22)
(1.99472 -0.00350483 3.79585e-22)
(1.99492 -0.00240714 -5.70808e-22)
(1.9952 -0.00137116 -3.73325e-22)
(1.99555 -0.000413222 1.86359e-22)
(1.99595 0.000454728 0)
(1.99639 0.0012239 1.79708e-22)
(1.99686 0.00188957 -1.46258e-24)
(1.99734 0.00244994 -1.07497e-24)
(1.99782 0.00290591 -1.71718e-22)
(1.9983 0.00326044 -3.33686e-22)
(1.99876 0.00351816 4.98231e-22)
(1.9992 0.00368482 -1.28457e-21)
(1.99961 0.00376724 1.28398e-21)
(2 0.00377221 -2.50644e-21)
(2.00036 0.00370702 2.755e-21)
(2.00068 0.003579 -9.12219e-22)
(2.00097 0.00339424 0)
(2.00123 0.00316014 1.46071e-22)
(2.00146 0.00288309 -1.46073e-22)
(2.00165 0.00256923 0)
(2.00182 0.0022244 0)
(2.00195 0.00185385 0)
(2.00206 0.00146276 0)
(2.00214 0.00105586 0)
(2.00219 0.000638106 0)
(2.00222 0.000213404 0)
(2.00475 -0.000406077 0)
(2.00474 -0.00121854 0)
(2.00474 -0.00203244 0)
(2.00474 -0.00284912 0)
(2.00473 -0.00366898 0)
(2.00472 -0.00449258 1.1044e-22)
(2.00469 -0.00531961 -2.22108e-22)
(2.00466 -0.00614945 1.11679e-22)
(2.0046 -0.00698072 -1.14968e-22)
(2.00453 -0.00781099 -2.02809e-24)
(2.00442 -0.00863693 1.16915e-22)
(2.00428 -0.00945369 0)
(2.00411 -0.0102568 -2.49922e-22)
(2.00388 -0.0110372 -7.71911e-22)
(2.00361 -0.0117846 5.16173e-21)
(2.00327 -0.0124911 -2.09392e-21)
(2.00287 -0.0131436 1.0897e-21)
(2.00241 -0.013727 -1.09633e-24)
(2.00188 -0.0142269 7.2324e-22)
(2.00128 -0.0146236 -1.19574e-21)
(2.00061 -0.0149006 -2.45307e-21)
(1.99989 -0.0150422 1.88637e-24)
(1.99912 -0.0150337 0)
(1.99832 -0.014861 -3.40555e-22)
(1.99751 -0.0145149 -9.01576e-24)
(1.99671 -0.0139915 3.50005e-22)
(1.99595 -0.0132931 0)
(1.99525 -0.0124289 0)
(1.99464 -0.0114147 -1.83494e-22)
(1.99413 -0.0102719 -3.78449e-22)
(1.99374 -0.0090295 3.87378e-22)
(1.99348 -0.00771942 -1.95407e-22)
(1.99336 -0.00637357 0)
(1.99338 -0.00502463 -5.82286e-22)
(1.99352 -0.0037031 1.92972e-22)
(1.99378 -0.00243656 3.80062e-22)
(1.99414 -0.00124816 -3.84008e-22)
(1.99458 -0.000156618 1.87211e-22)
(1.99508 0.000824669 1.81341e-22)
(1.99563 0.00168666 -5.51875e-22)
(1.99621 0.00242522 -1.58776e-24)
(1.99681 0.00303948 -1.13693e-24)
(1.9974 0.00353193 1.71696e-22)
(1.99798 0.00390726 -3.08998e-25)
(1.99855 0.00417197 0)
(1.99908 0.00433365 1.08509e-23)
(1.99958 0.00440106 1.27924e-21)
(2.00004 0.00438259 -2.47753e-21)
(2.00047 0.00428653 1.32079e-22)
(2.00086 0.00412184 -1.51232e-22)
(2.0012 0.00389563 0)
(2.00151 0.00361627 1.44344e-22)
(2.00178 0.00329096 -1.44346e-22)
(2.00201 0.00292655 0)
(2.0022 0.00252932 0)
(2.00236 0.00210495 0)
(2.00249 0.00165903 1.37662e-22)
(2.00258 0.00119658 -1.37679e-22)
(2.00264 0.000722804 0)
(2.00267 0.000241733 0)
(2.0056 -0.000440002 0)
(2.00559 -0.00132083 0)
(2.00559 -0.00220384 0)
(2.00559 -0.00309092 0)
(2.00559 -0.00398287 0)
(2.00558 -0.00488083 -1.07967e-22)
(2.00556 -0.0057849 2.1716e-22)
(2.00553 -0.00669486 1.56413e-24)
(2.00548 -0.00760973 1.80633e-24)
(2.0054 -0.0085273 1.16598e-22)
(2.00529 -0.00944457 -3.458e-22)
(2.00514 -0.0103565 -2.6058e-24)
(2.00495 -0.0112583 1.1933e-22)
(2.0047 -0.0121413 -2.52077e-22)
(2.00439 -0.0129942 -1.52273e-21)
(2.004 -0.0138067 -1.561e-21)
(2.00354 -0.0145639 -2.30771e-23)
(2.003 -0.0152498 1.19095e-22)
(2.00237 -0.0158464 4.20757e-22)
(2.00165 -0.0163312 -1.791e-21)
(2.00085 -0.0166817 -1.84339e-21)
(1.99997 -0.0168781 -6.33221e-22)
(1.99903 -0.0169017 0)
(1.99805 -0.0167331 -3.44019e-22)
(1.99705 -0.0163593 -1.01818e-23)
(1.99606 -0.0157736 3.54724e-22)
(1.99512 -0.0149772 1.86522e-22)
(1.99424 -0.0139802 0)
(1.99348 -0.0128019 3.90115e-22)
(1.99284 -0.0114684 -5.92445e-22)
(1.99236 -0.0100162 1.96858e-22)
(1.99205 -0.00848519 -3.99306e-22)
(1.99191 -0.00691526 5.96544e-22)
(1.99194 -0.00534698 -1.51633e-24)
(1.99213 -0.00381755 -2.02164e-22)
(1.99247 -0.0023602 1.95093e-22)
(1.99292 -0.00100221 0)
(1.99348 0.000235139 0)
(1.99411 0.00133735 -1.86233e-22)
(1.99479 0.0022954 3.70864e-22)
(1.99551 0.00310628 1.79978e-22)
(1.99623 0.00377082 -1.17743e-24)
(1.99696 0.00429375 -3.46138e-22)
(1.99766 0.00468214 -4.98825e-22)
(1.99833 0.00494503 1.98501e-21)
(1.99897 0.00509239 -1.2911e-21)
(1.99957 0.00513496 6.23789e-22)
(2.00012 0.00508287 1.85337e-21)
(2.00062 0.00494619 -2.12982e-21)
(2.00107 0.00473559 -2.99556e-22)
(2.00148 0.00445906 0)
(2.00184 0.00412616 -1.42374e-22)
(2.00215 0.00374482 1.42384e-22)
(2.00241 0.00332258 0)
(2.00264 0.00286613 1.37328e-22)
(2.00282 0.00238155 -1.37341e-22)
(2.00297 0.0018748 0)
(2.00308 0.00135102 0)
(2.00315 0.000815637 0)
(2.00318 0.000272785 0)
(2.00651 -0.00047271 0)
(2.00651 -0.00141955 0)
(2.00651 -0.00236946 0)
(2.00652 -0.00332493 0)
(2.00652 -0.00428732 0)
(2.00652 -0.00525842 0)
(2.00651 -0.00623881 -1.06539e-22)
(2.00648 -0.00722893 -1.56363e-24)
(2.00643 -0.00822827 -1.11633e-22)
(2.00636 -0.00923519 1.07686e-22)
(2.00625 -0.0102471 -1.16524e-22)
(2.0061 -0.0112589 2.28221e-22)
(2.00589 -0.0122659 -2.39417e-22)
(2.00562 -0.0132596 -6.62902e-24)
(2.00528 -0.0142281 2.23919e-21)
(2.00484 -0.0151589 -5.2224e-22)
(2.00432 -0.016036 -1.07814e-21)
(2.00369 -0.016841 -1.58634e-22)
(2.00296 -0.0175525 -2.03423e-23)
(2.00212 -0.0181443 1.75403e-21)
(2.00116 -0.0185875 1.02608e-23)
(2.00011 -0.018857 -3.23385e-22)
(1.99897 -0.018928 4.89062e-22)
(1.99778 -0.0187744 1.71817e-22)
(1.99655 -0.0183777 0)
(1.99533 -0.0177268 1.84572e-22)
(1.99416 -0.0168212 -1.86453e-22)
(1.99308 -0.0156718 3.90673e-22)
(1.99212 -0.0143019 -5.819e-22)
(1.99134 -0.0127439 6.02609e-22)
(1.99075 -0.0110438 -2.02355e-22)
(1.99038 -0.00925229 4.10771e-22)
(1.99022 -0.00741941 -2.08219e-22)
(1.99028 -0.00559577 6.17824e-22)
(1.99053 -0.00382695 -3.74614e-24)
(1.99096 -0.00215299 -6.10712e-22)
(1.99154 -0.000605745 -3.94661e-22)
(1.99224 0.000790703 3.94627e-22)
(1.99303 0.00202114 0)
(1.99387 0.00307738 1.85937e-22)
(1.99474 0.00395815 -1.83462e-22)
(1.99562 0.00466702 -1.79729e-22)
(1.99649 0.00521186 -1.25832e-24)
(1.99734 0.00560296 0)
(1.99814 0.00585293 1.31183e-21)
(1.99889 0.0059743 -2.56091e-21)
(1.99959 0.00597991 -9.38304e-22)
(2.00024 0.00588211 -3.09513e-22)
(2.00082 0.00569356 1.48067e-22)
(2.00134 0.00542634 -1.02046e-21)
(2.00181 0.00508942 4.32796e-22)
(2.00222 0.00469372 -1.42496e-22)
(2.00258 0.00424777 0)
(2.00288 0.00375973 0)
(2.00314 0.00323669 0)
(2.00335 0.00268502 -1.33581e-22)
(2.00352 0.002111 9.58734e-25)
(2.00364 0.00151985 1.32678e-22)
(2.00372 0.000917012 0)
(2.00376 0.000306692 0)
(2.00749 -0.000503775 -9.89031e-23)
(2.00749 -0.00151349 9.9182e-23)
(2.0075 -0.00252734 0)
(2.00751 -0.00354839 -1.00496e-22)
(2.00752 -0.00457875 1.00443e-22)
(2.00753 -0.00562096 0)
(2.00753 -0.00667629 1.03595e-22)
(2.00752 -0.00774592 1.54886e-24)
(2.00748 -0.00883001 -2.11875e-22)
(2.00742 -0.00992767 -1.10953e-22)
(2.00731 -0.011037 1.06432e-22)
(2.00716 -0.0121534 1.11138e-22)
(2.00695 -0.013272 0)
(2.00666 -0.014385 0)
(2.00629 -0.0154804 -2.56169e-22)
(2.00581 -0.0165434 -7.6039e-22)
(2.00523 -0.0175576 1.03824e-21)
(2.00452 -0.0185015 -8.2173e-22)
(2.00367 -0.0193501 -2.20245e-23)
(2.00269 -0.0200729 1.16102e-21)
(2.00157 -0.0206337 4.27912e-21)
(2.00032 -0.0210005 -6.48384e-22)
(1.99895 -0.0211398 4.78082e-22)
(1.99751 -0.0210174 1.66633e-22)
(1.99601 -0.0206063 0)
(1.99451 -0.0198892 -1.84462e-22)
(1.99306 -0.0188622 0)
(1.99172 -0.0175368 2.00679e-22)
(1.99055 -0.0159413 4.22434e-24)
(1.98958 -0.0141163 -8.29833e-22)
(1.98887 -0.0121205 1.27746e-21)
(1.98842 -0.0100186 1.74669e-24)
(1.98825 -0.00787442 -4.2472e-22)
(1.98835 -0.0057511 6.78431e-24)
(1.98869 -0.00370492 -2.03937e-22)
(1.98925 -0.001784 6.2255e-22)
(1.98998 -2.54251e-05 0)
(1.99085 0.00154421 0)
(1.99183 0.00290955 -3.84583e-22)
(1.99286 0.00406408 1.00003e-23)
(1.99392 0.00500954 7.42513e-22)
(1.99499 0.00575364 -2.304e-24)
(1.99602 0.00630853 -1.04278e-24)
(1.99702 0.00668873 1.34997e-21)
(1.99797 0.00691137 -7.86124e-21)
(1.99885 0.00699212 3.18907e-21)
(1.99966 0.00694597 6.17709e-22)
(2.00041 0.00678892 0)
(2.00108 0.00653567 0)
(2.00168 0.00619945 5.81785e-22)
(2.00221 0.00579096 1.40126e-22)
(2.00268 0.00532217 -1.40118e-22)
(2.00308 0.00480223 0)
(2.00343 0.00423979 -1.33549e-22)
(2.00371 0.00364228 1.33562e-22)
(2.00395 0.00301637 0)
(2.00413 0.00236835 0)
(2.00427 0.00170347 1.29045e-22)
(2.00436 0.00102714 -1.29082e-22)
(2.00441 0.000343529 0)
(2.00853 -0.000532815 0)
(2.00853 -0.00160142 0)
(2.00855 -0.0026753 9.68155e-23)
(2.00857 -0.0037583 -9.67621e-23)
(2.00859 -0.0048533 0)
(2.00862 -0.00596366 0)
(2.00863 -0.00709162 -1.00402e-22)
(2.00864 -0.00823919 -1.51648e-24)
(2.00862 -0.00940745 2.05384e-22)
(2.00857 -0.0105965 -1.03523e-22)
(2.00848 -0.0118053 -2.15814e-22)