/*--------------------------------*- C++ -*----------------------------------*\
  =========                 |
  \\      /  F ield         | OpenFOAM: The Open Source CFD Toolbox
   \\    /   O peration     | Website:  https://openfoam.org
    \\  /    A nd           | Version:  12
     \\/     M anipulation  |
\*---------------------------------------------------------------------------*/
FoamFile
{
    format      ascii;
    class       volScalarField;
    location    "140";
    object      k;
}
// * * * * * * * * * * * * * * * * * * * * * * * * * * * * * * * * * * * * * //

dimensions      [0 2 -2 0 0 0 0];

internalField   nonuniform List<scalar> 
16227
(
0.00914646
0.00914648
0.00914647
0.00914651
0.0091465
0.00914654
0.00914653
0.00914652
0.00914651
0.00914653
0.00914657
0.00914659
0.00914665
0.00914665
0.00914665
0.00914665
0.00914665
0.00914665
0.00914665
0.00914665
0.00914665
0.00914665
0.00914665
0.00914665
0.00914665
0.00914665
0.00914665
0.00914666
0.00914667
0.00914664
0.00914665
0.00914665
0.00914665
0.00914665
0.00914665
0.00914665
0.00914665
0.00914665
0.00914665
0.00914665
0.00914665
0.00914665
0.00914665
0.00914665
0.00914665
0.00914665
0.00914665
0.00914663
0.00914662
0.00914662
0.00914662
0.0091466
0.00914654
0.00914654
0.00914649
0.00914649
0.00914651
0.00914649
0.00914647
0.00914646
0.00848123
0.00848125
0.00848124
0.00848127
0.00848128
0.00848131
0.0084813
0.00848128
0.00848129
0.0084813
0.00848135
0.00848137
0.00848152
0.00848158
0.00848159
0.00848159
0.00848159
0.00848159
0.00848159
0.00848159
0.0084816
0.00848161
0.00848161
0.00848161
0.00848161
0.00848161
0.00848161
0.0084816
0.00848158
0.00848153
0.00848158
0.0084816
0.0084816
0.0084816
0.0084816
0.00848159
0.00848157
0.00848157
0.00848157
0.00848158
0.00848158
0.00848158
0.00848158
0.00848156
0.00848156
0.00848155
0.00848155
0.00848155
0.00848155
0.00848154
0.00848151
0.00848146
0.00848134
0.00848133
0.00848129
0.00848127
0.00848131
0.00848123
0.00848124
0.00848121
0.00790077
0.00790079
0.00790079
0.00790081
0.0079008
0.00790089
0.00790085
0.00790084
0.00790084
0.00790085
0.0079009
0.00790092
0.00790117
0.00790123
0.00790124
0.00790125
0.00790125
0.00790124
0.00790127
0.00790121
0.00790125
0.00790125
0.00790125
0.00790124
0.00790124
0.00790124
0.00790123
0.00790124
0.00790122
0.00790115
0.0079012
0.00790121
0.00790121
0.00790121
0.00790122
0.00790121
0.00790121
0.0079012
0.00790119
0.00790119
0.00790119
0.0079012
0.00790119
0.00790118
0.00790118
0.00790118
0.00790117
0.00790117
0.00790117
0.00790114
0.00790111
0.00790091
0.00790083
0.00790082
0.0079008
0.0079008
0.00790083
0.00790073
0.00790075
0.00790073
0.00739029
0.0073903
0.00739031
0.00739032
0.00739033
0.0073904
0.0073904
0.00739037
0.00739037
0.00739037
0.00739042
0.00739048
0.00739074
0.00739081
0.00739083
0.00739084
0.00739085
0.00739086
0.00739079
0.00739066
0.00739077
0.00739081
0.0073908
0.0073908
0.00739079
0.00739078
0.00739077
0.00739076
0.00739073
0.00739064
0.0073907
0.00739072
0.00739071
0.0073907
0.0073907
0.0073907
0.00739071
0.0073907
0.0073907
0.0073907
0.0073907
0.0073907
0.00739069
0.0073907
0.0073907
0.00739069
0.0073907
0.00739069
0.0073907
0.00739067
0.00739055
0.00739036
0.00739026
0.00739028
0.00739028
0.0073903
0.00739027
0.0073902
0.0073902
0.00739018
0.00693819
0.0069382
0.00693821
0.00693823
0.00693823
0.00693829
0.00693832
0.00693826
0.00693827
0.00693828
0.00693832
0.00693838
0.00693862
0.00693875
0.00693877
0.00693877
0.00693877
0.00693875
0.00693853
0.00693845
0.00693864
0.00693869
0.00693868
0.00693866
0.00693863
0.00693861
0.00693859
0.00693857
0.00693853
0.00693842
0.00693849
0.00693851
0.0069385
0.00693849
0.00693848
0.00693848
0.00693849
0.00693849
0.00693849
0.00693849
0.00693851
0.00693852
0.00693851
0.00693851
0.00693852
0.00693853
0.00693853
0.00693853
0.00693854
0.00693846
0.00693822
0.00693811
0.00693804
0.00693807
0.00693809
0.00693814
0.00693808
0.00693801
0.00693801
0.00693799
0.00653526
0.00653528
0.00653527
0.00653529
0.00653529
0.00653535
0.00653539
0.00653534
0.00653532
0.00653532
0.00653533
0.00653537
0.00653549
0.00653578
0.00653584
0.00653585
0.00653585
0.00653573
0.00653549
0.00653544
0.00653564
0.00653568
0.00653566
0.00653562
0.00653558
0.00653556
0.00653552
0.00653548
0.00653542
0.0065353
0.00653536
0.00653537
0.00653536
0.00653535
0.00653535
0.00653535
0.00653536
0.00653536
0.00653537
0.00653537
0.00653539
0.0065354
0.00653541
0.00653543
0.00653544
0.00653545
0.00653546
0.00653547
0.00653548
0.00653534
0.00653511
0.006535
0.00653497
0.00653502
0.00653507
0.00653506
0.00653501
0.00653495
0.00653495
0.00653494
0.0061741
0.00617412
0.00617411
0.00617413
0.00617413
0.00617418
0.00617422
0.00617421
0.00617417
0.00617417
0.00617416
0.00617416
0.00617427
0.00617453
0.00617466
0.00617468
0.00617464
0.00617433
0.0061742
0.00617418
0.00617438
0.0061744
0.00617435
0.0061743
0.00617425
0.00617419
0.00617413
0.00617408
0.00617401
0.00617386
0.00617392
0.00617392
0.0061739
0.00617389
0.00617389
0.00617389
0.00617389
0.00617391
0.00617393
0.00617395
0.00617397
0.00617399
0.00617402
0.00617404
0.00617407
0.00617409
0.0061741
0.00617413
0.00617407
0.00617381
0.00617369
0.00617362
0.00617363
0.00617371
0.00617373
0.00617373
0.00617368
0.00617363
0.00617364
0.00617362
0.00584872
0.00584872
0.00584872
0.00584874
0.00584873
0.00584877
0.00584882
0.00584882
0.00584878
0.00584875
0.00584873
0.0058487
0.00584875
0.00584888
0.00584917
0.00584924
0.00584916
0.00584881
0.00584869
0.00584865
0.00584885
0.00584885
0.00584878
0.0058487
0.00584861
0.00584853
0.00584846
0.00584838
0.00584828
0.00584811
0.00584816
0.00584815
0.00584813
0.00584811
0.00584811
0.00584811
0.00584812
0.00584814
0.00584817
0.0058482
0.00584825
0.00584827
0.00584831
0.00584836
0.0058484
0.00584842
0.00584846
0.00584848
0.00584836
0.00584812
0.00584802
0.005848
0.00584806
0.00584811
0.00584812
0.00584813
0.00584809
0.00584805
0.00584806
0.00584804
0.00555417
0.00555417
0.00555418
0.00555418
0.00555419
0.00555421
0.00555425
0.00555425
0.00555425
0.0055542
0.00555416
0.00555411
0.00555412
0.00555422
0.00555455
0.00555464
0.00555447
0.00555413
0.00555401
0.00555395
0.00555413
0.0055541
0.00555399
0.00555388
0.00555377
0.00555366
0.00555355
0.00555345
0.00555333
0.00555313
0.00555316
0.00555314
0.00555311
0.00555309
0.00555308
0.00555309
0.00555311
0.00555315
0.00555318
0.00555322
0.00555328
0.00555334
0.00555339
0.00555344
0.00555349
0.00555356
0.00555359
0.00555355
0.00555331
0.00555321
0.00555315
0.00555321
0.00555325
0.00555331
0.00555332
0.00555334
0.00555332
0.00555328
0.00555328
0.00555328
0.00528639
0.00528639
0.00528639
0.0052864
0.0052864
0.00528643
0.00528646
0.00528645
0.00528644
0.00528643
0.00528637
0.0052863
0.00528631
0.0052864
0.00528666
0.00528674
0.00528641
0.00528618
0.00528607
0.005286
0.00528614
0.00528608
0.00528595
0.0052858
0.00528565
0.0052855
0.00528536
0.00528522
0.00528507
0.00528485
0.00528487
0.00528482
0.00528478
0.00528476
0.00528475
0.00528476
0.00528479
0.00528483
0.00528489
0.00528495
0.00528501
0.00528508
0.00528517
0.00528525
0.00528532
0.00528539
0.00528544
0.00528538
0.00528514
0.00528507
0.00528508
0.00528513
0.00528518
0.00528524
0.00528527
0.00528529
0.00528527
0.00528525
0.00528525
0.00528525
0.00504198
0.00504198
0.00504199
0.00504199
0.005042
0.00504202
0.00504204
0.00504203
0.00504202
0.005042
0.00504196
0.00504186
0.00504181
0.00504185
0.00504195
0.00504214
0.00504182
0.00504163
0.0050415
0.00504141
0.00504145
0.0050414
0.00504124
0.00504105
0.00504085
0.00504067
0.00504048
0.0050403
0.00504012
0.00503987
0.00503986
0.00503981
0.00503975
0.00503971
0.00503971
0.00503973
0.00503977
0.00503982
0.00503989
0.00503998
0.00504007
0.00504016
0.00504027
0.00504036
0.00504046
0.00504054
0.00504054
0.00504044
0.00504032
0.00504028
0.00504033
0.00504038
0.00504044
0.00504052
0.00504056
0.00504058
0.00504058
0.00504055
0.00504057
0.00504057
0.00481809
0.00481809
0.00481809
0.0048181
0.0048181
0.00481813
0.00481814
0.00481814
0.00481812
0.00481809
0.00481804
0.00481797
0.00481788
0.00481786
0.00481791
0.00481805
0.0048178
0.0048176
0.00481742
0.00481728
0.00481716
0.00481718
0.00481701
0.00481678
0.00481653
0.0048163
0.00481607
0.00481585
0.00481562
0.00481535
0.00481531
0.00481523
0.00481516
0.00481512
0.00481512
0.00481514
0.00481518
0.00481526
0.00481535
0.00481545
0.00481557
0.00481569
0.00481582
0.00481595
0.00481606
0.00481613
0.00481604
0.00481603
0.00481601
0.004816
0.00481606
0.00481614
0.00481621
0.00481629
0.00481634
0.00481638
0.00481637
0.00481636
0.00481638
0.00481638
0.0046123
0.00461231
0.00461231
0.00461231
0.00461232
0.00461234
0.00461235
0.00461234
0.00461232
0.00461229
0.00461225
0.00461216
0.00461207
0.00461197
0.00461193
0.00461191
0.00461183
0.00461167
0.00461147
0.00461127
0.00461107
0.00461108
0.00461087
0.00461059
0.00461029
0.00461
0.00460971
0.00460945
0.00460918
0.00460886
0.00460879
0.00460869
0.0046086
0.00460856
0.00460855
0.00460859
0.00460865
0.00460874
0.00460886
0.00460899
0.00460913
0.00460929
0.00460944
0.0046096
0.00460972
0.00460978
0.00460972
0.00460978
0.00460977
0.00460979
0.00460987
0.00460997
0.00461006
0.00461014
0.0046102
0.00461024
0.00461026
0.00461025
0.00461027
0.00461027
0.00442257
0.00442258
0.00442258
0.00442258
0.00442258
0.0044226
0.00442261
0.0044226
0.00442258
0.00442255
0.0044225
0.00442241
0.00442232
0.00442221
0.00442209
0.00442203
0.00442198
0.0044218
0.00442157
0.00442132
0.00442107
0.00442103
0.00442076
0.00442042
0.00442006
0.00441971
0.00441937
0.00441904
0.00441872
0.00441836
0.00441825
0.00441813
0.00441803
0.00441798
0.00441797
0.00441801
0.0044181
0.00441821
0.00441835
0.00441852
0.00441869
0.00441888
0.00441907
0.00441924
0.00441933
0.00441936
0.00441944
0.00441952
0.00441955
0.00441962
0.00441971
0.00441982
0.00441993
0.00442002
0.0044201
0.00442015
0.00442017
0.00442018
0.0044202
0.0044202
0.00424712
0.00424713
0.00424713
0.00424714
0.00424714
0.00424716
0.00424717
0.00424716
0.00424714
0.0042471
0.00424705
0.00424696
0.00424686
0.00424674
0.00424662
0.00424652
0.00424645
0.00424624
0.00424596
0.00424567
0.00424537
0.00424526
0.00424494
0.00424452
0.0042441
0.00424368
0.00424327
0.00424288
0.0042425
0.00424209
0.00424195
0.00424179
0.00424167
0.00424162
0.00424162
0.00424167
0.00424177
0.00424192
0.00424209
0.00424229
0.0042425
0.00424273
0.00424294
0.0042431
0.00424313
0.00424327
0.00424341
0.00424353
0.00424361
0.0042437
0.00424384
0.00424396
0.00424407
0.00424418
0.00424426
0.00424433
0.00424435
0.00424438
0.0042444
0.0042444
0.00408445
0.00408446
0.00408446
0.00408447
0.00408447
0.0040845
0.00408451
0.0040845
0.00408448
0.00408445
0.00408439
0.0040843
0.00408419
0.00408406
0.00408393
0.00408382
0.0040837
0.00408347
0.00408315
0.00408281
0.00408246
0.00408222
0.00408187
0.00408139
0.00408089
0.00408039
0.00407991
0.00407944
0.004079
0.00407854
0.00407835
0.00407816
0.00407802
0.00407796
0.00407796
0.00407804
0.00407816
0.00407834
0.00407855
0.00407878
0.00407904
0.0040793
0.00407955
0.00407971
0.00407979
0.00407997
0.00408015
0.00408027
0.00408039
0.00408054
0.0040807
0.00408085
0.00408098
0.00408111
0.0040812
0.00408127
0.00408131
0.00408133
0.00408136
0.00408136
0.00393325
0.00393325
0.00393326
0.00393327
0.00393328
0.0039333
0.00393332
0.00393331
0.0039333
0.00393326
0.00393321
0.00393311
0.00393301
0.00393287
0.00393272
0.00393259
0.00393246
0.00393217
0.00393182
0.00393141
0.00393098
0.00393056
0.00393024
0.00392973
0.00392914
0.00392855
0.00392797
0.00392743
0.00392691
0.00392639
0.00392615
0.00392592
0.00392577
0.0039257
0.00392571
0.0039258
0.00392597
0.00392617
0.00392643
0.00392671
0.00392701
0.0039273
0.00392752
0.00392769
0.00392789
0.00392813
0.00392835
0.0039285
0.00392865
0.00392885
0.00392903
0.0039292
0.00392934
0.00392948
0.00392959
0.00392967
0.00392971
0.00392974
0.00392978
0.00392978
0.00379236
0.00379237
0.00379238
0.00379239
0.0037924
0.00379243
0.00379245
0.00379245
0.00379244
0.00379241
0.00379236
0.00379227
0.00379216
0.00379202
0.00379185
0.0037917
0.00379155
0.00379125
0.00379084
0.00379037
0.00378988
0.00378934
0.00378897
0.00378839
0.00378771
0.00378702
0.00378634
0.0037857
0.00378509
0.00378451
0.00378421
0.00378395
0.00378377
0.00378369
0.00378372
0.00378384
0.00378403
0.00378429
0.00378459
0.00378492
0.00378527
0.00378557
0.00378574
0.00378601
0.00378631
0.00378661
0.00378686
0.00378705
0.00378725
0.00378747
0.00378768
0.00378786
0.00378802
0.00378818
0.0037883
0.00378838
0.00378843
0.00378847
0.00378851
0.00378852
0.00366081
0.00366082
0.00366083
0.00366084
0.00366086
0.00366089
0.00366093
0.00366093
0.00366093
0.0036609
0.00366086
0.00366077
0.00366066
0.00366052
0.00366035
0.00366018
0.00365999
0.00365966
0.00365924
0.00365871
0.00365815
0.00365754
0.00365703
0.00365638
0.0036556
0.0036548
0.00365402
0.00365327
0.00365256
0.0036519
0.00365153
0.00365122
0.00365103
0.00365095
0.00365099
0.00365115
0.00365138
0.00365169
0.00365204
0.00365241
0.00365281
0.00365314
0.00365337
0.00365371
0.00365407
0.0036544
0.00365466
0.0036549
0.00365516
0.00365542
0.00365565
0.00365585
0.00365603
0.0036562
0.00365632
0.00365642
0.00365648
0.00365653
0.00365657
0.00365658
0.0035377
0.00353772
0.00353773
0.00353775
0.00353777
0.00353782
0.00353785
0.00353787
0.00353787
0.00353786
0.00353783
0.00353775
0.00353765
0.00353751
0.00353733
0.00353714
0.00353692
0.00353659
0.00353612
0.00353556
0.00353491
0.00353421
0.00353348
0.00353283
0.00353198
0.00353105
0.00353014
0.00352927
0.00352845
0.00352769
0.00352725
0.0035269
0.00352668
0.0035266
0.00352666
0.00352685
0.00352713
0.00352749
0.00352788
0.00352828
0.0035287
0.00352907
0.00352945
0.00352987
0.00353029
0.00353065
0.00353094
0.00353123
0.00353154
0.00353182
0.00353208
0.0035323
0.0035325
0.00353267
0.00353281
0.00353291
0.00353299
0.00353303
0.00353308
0.00353309
0.00342228
0.0034223
0.00342232
0.00342234
0.00342237
0.00342242
0.00342247
0.0034225
0.00342252
0.00342252
0.0034225
0.00342244
0.00342235
0.00342221
0.00342202
0.00342179
0.00342155
0.00342123
0.00342075
0.00342015
0.00341944
0.00341864
0.00341779
0.00341705
0.00341608
0.00341502
0.00341396
0.00341295
0.003412
0.00341113
0.0034106
0.00341019
0.00340994
0.00340987
0.00340997
0.0034102
0.00341054
0.00341093
0.00341138
0.00341185
0.00341226
0.00341273
0.00341323
0.00341373
0.00341419
0.00341456
0.00341491
0.00341526
0.00341561
0.00341592
0.00341619
0.00341643
0.00341665
0.00341683
0.00341698
0.0034171
0.00341717
0.00341723
0.00341728
0.00341729
0.00331386
0.00331388
0.0033139
0.00331394
0.00331397
0.00331403
0.00331409
0.00331414
0.00331418
0.0033142
0.00331419
0.00331415
0.00331408
0.00331395
0.00331378
0.00331354
0.00331328
0.00331296
0.00331246
0.00331182
0.00331106
0.00331019
0.00330924
0.00330835
0.00330727
0.00330606
0.00330484
0.00330366
0.00330256
0.00330156
0.00330092
0.00330044
0.00330017
0.0033001
0.00330022
0.00330051
0.00330089
0.00330134
0.00330186
0.00330242
0.00330291
0.00330347
0.00330406
0.00330461
0.0033051
0.00330551
0.00330591
0.00330632
0.00330669
0.00330703
0.00330732
0.00330758
0.00330781
0.00330801
0.00330816
0.00330829
0.00330837
0.00330843
0.00330848
0.0033085
0.00321183
0.00321186
0.00321188
0.00321192
0.00321198
0.00321205
0.00321212
0.00321219
0.00321225
0.00321229
0.0032123
0.00321228
0.00321224
0.00321214
0.00321198
0.00321176
0.00321149
0.00321116
0.00321066
0.00321
0.00320919
0.00320825
0.00320722
0.00320613
0.00320508
0.0032037
0.00320229
0.00320092
0.00319964
0.00319847
0.0031977
0.00319714
0.00319683
0.00319676
0.00319692
0.00319727
0.0031976
0.00319812
0.00319868
0.00319932
0.00319997
0.00320064
0.00320129
0.00320188
0.00320239
0.00320288
0.00320335
0.00320379
0.0032042
0.00320455
0.00320487
0.00320514
0.00320538
0.00320559
0.00320575
0.00320589
0.00320598
0.00320604
0.00320609
0.00320611
0.00311567
0.00311569
0.00311572
0.00311577
0.00311584
0.00311592
0.00311602
0.0031161
0.00311618
0.00311625
0.0031163
0.00311631
0.00311629
0.00311623
0.0031161
0.00311589
0.00311561
0.00311526
0.00311481
0.00311416
0.00311334
0.00311235
0.00311127
0.0031108
0.00315548
0.00315408
0.00315255
0.00315106
0.00314965
0.00314836
0.00314749
0.00314687
0.00314652
0.00314645
0.00314663
0.003147
0.00310039
0.00310077
0.00310144
0.00310219
0.00310296
0.00310371
0.00310442
0.00310502
0.00310559
0.00310615
0.00310668
0.00310716
0.00310758
0.00310796
0.0031083
0.00310858
0.00310883
0.00310905
0.00310922
0.00310936
0.00310946
0.00310953
0.00310958
0.0031096
0.00302487
0.0030249
0.00302494
0.00302501
0.00302508
0.00302518
0.0030253
0.0030254
0.00302551
0.00302561
0.00302569
0.00302574
0.00302576
0.00302574
0.00302565
0.00302548
0.00302522
0.00302488
0.00302444
0.00302386
0.00302306
0.00302208
0.00302168
0.0030642
0.0030609
0.00305955
0.00305782
0.00305607
0.00305438
0.00305281
0.0030517
0.00305089
0.00305042
0.0030503
0.0030505
0.00305085
0.00305301
0.00300908
0.00300971
0.00301054
0.0030114
0.00301221
0.00301296
0.00301362
0.00301425
0.00301486
0.00301542
0.00301593
0.00301638
0.00301678
0.00301713
0.00301743
0.00301768
0.00301791
0.00301809
0.00301823
0.00301833
0.0030184
0.00301846
0.00301848
0.00293903
0.00293905
0.00293911
0.00293918
0.00293927
0.00293939
0.00293952
0.00293966
0.0029398
0.00293993
0.00294006
0.00294015
0.00294022
0.00294025
0.00294022
0.0029401
0.0029399
0.0029396
0.00293922
0.0029387
0.00293797
0.00293709
0.0029373
0.00297542
0.00297228
0.00299234
0.00299051
0.00298854
0.0029866
0.00298478
0.00298346
0.00298245
0.00298184
0.00298164
0.00298184
0.00296034
0.0029623
0.00292245
0.00292302
0.00292393
0.00292485
0.00292571
0.00292648
0.00292721
0.00292792
0.00292857
0.00292916
0.00292969
0.00293016
0.00293057
0.00293093
0.00293124
0.00293151
0.00293174
0.00293192
0.00293207
0.00293217
0.00293224
0.0029323
0.00293232
0.00285774
0.00285777
0.00285783
0.00285791
0.00285802
0.00285816
0.00285832
0.00285848
0.00285866
0.00285883
0.002859
0.00285915
0.00285927
0.00285937
0.00285941
0.00285937
0.00285925
0.00285904
0.00285872
0.0028583
0.00285773
0.00285708
0.00285799
0.00289212
0.00288926
0.00290739
0.0029055
0.00290323
0.002901
0.00289892
0.00289722
0.00289584
0.00289488
0.00289441
0.00289429
0.00287512
0.00287651
0.00284063
0.00284104
0.00284197
0.00284292
0.00284381
0.00284465
0.00284546
0.00284621
0.0028469
0.00284752
0.00284806
0.00284855
0.00284897
0.00284933
0.00284965
0.00284992
0.00285015
0.00285034
0.00285049
0.0028506
0.00285067
0.00285073
0.00285075
0.00278065
0.00278069
0.00278076
0.00278085
0.00278098
0.00278114
0.00278132
0.00278152
0.00278173
0.00278195
0.00278217
0.00278238
0.00278257
0.00278274
0.00278287
0.00278294
0.00278294
0.00278285
0.00278267
0.0027824
0.00278204
0.00278182
0.00278357
0.00281423
0.00281186
0.0028284
0.00282667
0.00282442
0.00282222
0.00282001
0.00281792
0.00281584
0.00281405
0.00281276
0.00281203
0.00279459
0.00279553
0.00276327
0.00276343
0.00276433
0.00276531
0.00276624
0.00276715
0.00276801
0.0027688
0.0027695
0.00277013
0.0027707
0.00277119
0.00277162
0.00277199
0.00277231
0.00277258
0.00277281
0.002773
0.00277315
0.00277326
0.00277333
0.00277339
0.00277342
0.00270746
0.00270751
0.00270758
0.00270769
0.00270783
0.00270801
0.00270823
0.00270846
0.00270871
0.00270898
0.00270925
0.00270952
0.00270979
0.00271005
0.00271028
0.00271048
0.00271063
0.00271072
0.00271075
0.00271074
0.00271072
0.00271115
0.00271392
0.00274167
0.00274052
0.00275615
0.00275503
0.00275441
0.00275384
0.00275248
0.00274964
0.00274548
0.00274115
0.00273758
0.00273526
0.00271864
0.00271923
0.00269003
0.00268988
0.00269072
0.00269173
0.00269273
0.00269368
0.00269456
0.00269536
0.00269607
0.00269671
0.00269728
0.00269777
0.0026982
0.00269858
0.0026989
0.00269917
0.0026994
0.00269959
0.00269974
0.00269985
0.00269992
0.00269998
0.0027
0.00263788
0.00263793
0.00263801
0.00263813
0.0026383
0.0026385
0.00263874
0.00263901
0.0026393
0.00263962
0.00263995
0.00264029
0.00264065
0.00264101
0.00264136
0.0026417
0.00264204
0.00264236
0.00264269
0.00264308
0.00264357
0.00264497
0.00264901
0.00267454
0.00267605
0.00269133
0.00269377
0.00269999
0.00270834
0.00271304
0.00270798
0.00269512
0.00268142
0.00267139
0.00266511
0.00264707
0.00264751
0.00262067
0.00262021
0.00262099
0.00262199
0.00262299
0.00262394
0.00262482
0.00262562
0.00262633
0.00262697
0.00262753
0.00262803
0.00262846
0.00262882
0.00262914
0.00262941
0.00262964
0.00262982
0.00262997
0.00263007
0.00263015
0.0026302
0.00263023
0.00257164
0.0025717
0.00257179
0.00257193
0.00257211
0.00257233
0.0025726
0.0025729
0.00257324
0.00257361
0.00257401
0.00257442
0.00257487
0.00257534
0.00257583
0.00257634
0.00257689
0.0025775
0.0025782
0.00257912
0.00258036
0.00258317
0.00258876
0.00261292
0.00261947
0.00263592
0.00264989
0.00268309
0.00273908
0.00278594
0.00276799
0.00270434
0.00265037
0.00261962
0.00260392
0.0025807
0.00258029
0.00255498
0.00255418
0.00255488
0.00255579
0.00255675
0.00255767
0.00255853
0.00255932
0.00256002
0.00256065
0.0025612
0.00256169
0.00256211
0.00256247
0.00256278
0.00256304
0.00256326
0.00256344
0.00256359
0.00256369
0.00256376
0.00256381
0.00256384
0.00250852
0.00250858
0.00250868
0.00250883
0.00250903
0.00250928
0.00250958
0.00250991
0.0025103
0.00251072
0.00251118
0.00251167
0.00251222
0.0025128
0.00251344
0.00251414
0.00251494
0.00251586
0.00251701
0.0025186
0.00252081
0.00252551
0.00253304
0.00255705
0.00257132
0.00259284
0.00264079
0.00277284
0.00293231
0.00305016
0.00301448
0.00286486
0.00269455
0.00259302
0.00255468
0.00252134
0.00251742
0.00249289
0.00249153
0.00249212
0.00249288
0.00249378
0.00249465
0.00249548
0.00249623
0.00249691
0.00249752
0.00249806
0.00249852
0.00249893
0.00249928
0.00249957
0.00249983
0.00250004
0.00250022
0.00250035
0.00250045
0.00250052
0.00250057
0.0025006
0.0024483
0.00244836
0.00244847
0.00244863
0.00244885
0.00244912
0.00244945
0.00244982
0.00245024
0.00245072
0.00245124
0.00245182
0.00245246
0.00245317
0.00245396
0.00245486
0.00245592
0.00245721
0.00245887
0.00246123
0.00246461
0.00247153
0.0024812
0.00250679
0.00253148
0.00256603
0.00269789
0.00296022
0.0033539
0.00419063
0.00397583
0.00325691
0.00284949
0.00260685
0.00251821
0.00247132
0.00245878
0.00243414
0.00243198
0.00243245
0.00243304
0.00243385
0.00243464
0.00243541
0.00243613
0.00243677
0.00243735
0.00243786
0.00243831
0.0024387
0.00243903
0.00243931
0.00243955
0.00243976
0.00243992
0.00244005
0.00244015
0.00244022
0.00244026
0.00244029
0.00239077
0.00239085
0.00239096
0.00239114
0.00239137
0.00239166
0.00239202
0.00239242
0.00239289
0.00239341
0.002394
0.00239465
0.00239539
0.00239622
0.00239717
0.00239828
0.00239961
0.00240128
0.00240348
0.00240668
0.00241133
0.00242063
0.00243224
0.00246115
0.00249788
0.00255564
0.00282165
0.00323466
0.00480048
0.00477008
0.00308154
0.00266068
0.00248959
0.00242999
0.00240372
0.00237858
0.0023753
0.00237562
0.00237603
0.00237673
0.00237743
0.00237813
0.00237879
0.00237939
0.00237993
0.00238041
0.00238083
0.0023812
0.00238151
0.00238178
0.00238201
0.00238221
0.00238237
0.00238249
0.00238258
0.00238265
0.00238269
0.00238273
0.00233578
0.00233586
0.00233598
0.00233616
0.00233641
0.00233672
0.0023371
0.00233754
0.00233804
0.00233862
0.00233926
0.00233999
0.00234082
0.00234177
0.00234287
0.00234417
0.00234578
0.00234783
0.00235057
0.00235462
0.00236053
0.00237205
0.00238506
0.00241865
0.002468
0.0025518
0.00296739
0.00351594
0.00430724
0.0886794
0.0699691
0.00337694
0.00271398
0.00245697
0.00239309
0.00235175
0.00232613
0.00232142
0.00232152
0.00232174
0.0023223
0.00232289
0.00232351
0.00232409
0.00232464
0.00232514
0.00232558
0.00232597
0.0023263
0.0023266
0.00232685
0.00232706
0.00232724
0.00232739
0.0023275
0.00232758
0.00232765
0.00232769
0.00232772
0.00228314
0.00228322
0.00228335
0.00228355
0.00228381
0.00228414
0.00228454
0.00228501
0.00228555
0.00228616
0.00228687
0.00228766
0.00228857
0.00228963
0.00229087
0.00229236
0.00229422
0.00229662
0.00229987
0.00230469
0.00231183
0.00232515
0.00233915
0.00237774
0.00244034
0.00253989
0.00312478
0.00387418
0.0165717
0.514909
0.53626
0.0823055
0.00393351
0.00273559
0.0024146
0.00235628
0.00230263
0.00227668
0.00227016
0.00226993
0.00226995
0.00227036
0.00227083
0.00227134
0.00227185
0.00227233
0.00227278
0.00227317
0.00227352
0.00227383
0.00227409
0.00227432
0.00227451
0.00227468
0.00227481
0.00227492
0.00227499
0.00227505
0.00227508
0.00227512
0.00223271
0.0022328
0.00223294
0.00223314
0.00223342
0.00223376
0.00223418
0.00223468
0.00223525
0.0022359
0.00223665
0.00223751
0.0022385
0.00223965
0.00224101
0.00224267
0.00224474
0.00224743
0.00225111
0.00225656
0.00226485
0.00227939
0.00229449
0.00233739
0.00241433
0.0025177
0.00326333
0.00434206
0.00519135
0.186932
0.393992
0.134171
0.00539879
0.00280996
0.00237916
0.00232163
0.00225691
0.00223032
0.00222143
0.00222067
0.00222048
0.00222073
0.00222106
0.00222147
0.00222189
0.0022223
0.00222269
0.00222303
0.00222334
0.00222361
0.00222385
0.00222405
0.00222422
0.00222437
0.00222448
0.00222458
0.00222464
0.00222469
0.00222473
0.00222476
0.00218436
0.00218445
0.00218459
0.00218481
0.00218509
0.00218545
0.00218589
0.0021864
0.002187
0.00218769
0.00218848
0.00218939
0.00219044
0.00219167
0.00219314
0.00219492
0.00219715
0.00220004
0.00220407
0.00220999
0.00221932
0.00223456
0.00225128
0.00229738
0.00238971
0.00250192
0.00334582
0.00463325
0.00400333
0.0425278
0.0661979
0.188425
0.0375728
0.00321772
0.00237348
0.00229663
0.00221564
0.0021872
0.00217514
0.00217358
0.00217317
0.00217326
0.00217344
0.00217374
0.00217407
0.0021744
0.00217472
0.00217501
0.00217528
0.00217551
0.00217571
0.00217589
0.00217604
0.00217617
0.00217627
0.00217635
0.00217641
0.00217645
0.00217648
0.00217651
0.00213795
0.00213805
0.0021382
0.00213841
0.00213871
0.00213908
0.00213953
0.00214006
0.00214069
0.0021414
0.00214223
0.00214317
0.00214427
0.00214555
0.00214708
0.00214892
0.00215127
0.00215436
0.00215867
0.00216491
0.002175
0.00219057
0.00220961
0.00225844
0.00236377
0.00251019
0.0033405
0.00476263
0.0050213
0.0119669
0.0280469
0.151662
0.0822965
0.00508657
0.00240023
0.00228157
0.00217915
0.00214724
0.0021312
0.00212853
0.00212786
0.00212776
0.00212781
0.00212799
0.00212823
0.00212849
0.00212874
0.00212898
0.0021292
0.0021294
0.00212957
0.00212971
0.00212984
0.00212995
0.00213004
0.00213011
0.00213016
0.00213019
0.00213022
0.00213024
0.00209338
0.00209348
0.00209363
0.00209385
0.00209415
0.00209453
0.002095
0.00209554
0.00209618
0.00209692
0.00209777
0.00209874
0.00209986
0.00210115
0.00210271
0.00210465
0.00210712
0.00211034
0.00211482
0.0021212
0.00213169
0.00214738
0.00216939
0.00222137
0.00233327
0.00253225
0.0032752
0.00482523
0.00606789
0.00599321
0.00956766
0.136335
0.0608789
0.00735854
0.00243306
0.00226615
0.0021463
0.00210978
0.00208938
0.0020853
0.00208435
0.00208407
0.002084
0.0020841
0.00208426
0.00208444
0.00208463
0.00208482
0.00208499
0.00208515
0.00208528
0.00208541
0.00208551
0.0020856
0.00208567
0.00208573
0.00208576
0.00208579
0.00208581
0.00208584
0.00205053
0.00205063
0.00205078
0.00205101
0.00205131
0.0020517
0.00205218
0.00205273
0.00205338
0.00205413
0.00205499
0.00205597
0.00205709
0.00205841
0.00206003
0.00206203
0.00206455
0.00206782
0.00207237
0.00207877
0.00208932
0.00210499
0.00213019
0.00218617
0.00229706
0.00253775
0.00323014
0.00501386
0.00904668
0.00740287
0.0327125
0.053787
0.0362026
0.00781004
0.00245157
0.00224054
0.00211417
0.00207411
0.00204944
0.0020438
0.00204259
0.00204216
0.00204195
0.00204192
0.00204201
0.00204213
0.00204226
0.0020424
0.00204253
0.00204265
0.00204276
0.00204285
0.00204293
0.002043
0.00204305
0.0020431
0.00204313
0.00204315
0.00204316
0.00204319
0.0020093
0.00200941
0.00200956
0.00200979
0.0020101
0.00201049
0.00201097
0.00201153
0.00201219
0.00201293
0.00201377
0.00201474
0.0020159
0.00201727
0.00201892
0.00202093
0.00202346
0.00202673
0.00203127
0.0020376
0.00204794
0.00206345
0.00209166
0.00215133
0.00225569
0.00250498
0.00329233
0.00764985
0.0151667
0.0152309
0.0245076
0.0321284
0.0221999
0.00735437
0.00245108
0.00220469
0.00208143
0.00203934
0.00201103
0.00200396
0.00200242
0.00200185
0.00200154
0.00200138
0.00200137
0.00200143
0.00200153
0.00200163
0.00200172
0.0020018
0.00200188
0.00200194
0.002002
0.00200205
0.00200209
0.00200212
0.00200214
0.00200216
0.00200217
0.00200219
0.00196961
0.00196972
0.00196987
0.0019701
0.00197041
0.00197081
0.00197128
0.00197185
0.00197249
0.00197322
0.00197406
0.00197506
0.00197623
0.00197761
0.00197926
0.00198126
0.00198378
0.001987
0.00199147
0.00199765
0.00200762
0.00202294
0.00205335
0.00211548
0.00221092
0.00245063
0.00346665
0.0162447
0.018085
0.0156555
0.0404726
0.0308211
0.0137417
0.00660013
0.00244398
0.00216662
0.00204788
0.00200496
0.00197385
0.00196559
0.00196379
0.00196302
0.00196263
0.0019624
0.0019623
0.00196228
0.00196232
0.0019624
0.00196246
0.00196251
0.00196255
0.00196259
0.00196263
0.00196266
0.00196269
0.00196271
0.00196272
0.00196272
0.00196273
0.00196276
0.00193137
0.00193148
0.00193163
0.00193186
0.00193217
0.00193256
0.00193303
0.00193359
0.00193422
0.00193495
0.00193581
0.00193681
0.00193798
0.00193935
0.00194098
0.00194296
0.00194543
0.00194859
0.00195293
0.00195894
0.00196852
0.00198353
0.00201523
0.00207802
0.00216485
0.00241255
0.00368826
0.0214799
0.0184097
0.0224092
0.0569114
0.0378292
0.00917141
0.00580951
0.00242504
0.00213522
0.00201389
0.00197076
0.00193772
0.00192853
0.00192655
0.00192565
0.00192511
0.00192482
0.00192467
0.00192459
0.00192458
0.00192461
0.00192465
0.00192468
0.0019247
0.00192472
0.00192473
0.00192475
0.00192476
0.00192477
0.00192477
0.00192477
0.00192477
0.0019248
0.00189449
0.00189461
0.00189476
0.00189499
0.00189529
0.00189568
0.00189613
0.00189667
0.00189731
0.00189805
0.00189891
0.0018999
0.00190106
0.00190241
0.00190402
0.00190596
0.00190837
0.00191145
0.00191564
0.0019215
0.00193066
0.00194529
0.00197752
0.00203934
0.00211936
0.00240719
0.00380524
0.0215339
0.0189366
0.0562536
0.051224
0.0317499
0.00670673
0.00506984
0.00238904
0.00211362
0.00198007
0.00193672
0.00190259
0.00189272
0.0018906
0.00188962
0.001889
0.0018886
0.00188837
0.00188823
0.00188821
0.0018882
0.00188821
0.00188822
0.00188823
0.00188822
0.00188822
0.00188822
0.00188822
0.00188821
0.00188821
0.0018882
0.0018882
0.00188823
0.00185892