/*--------------------------------*- C++ -*----------------------------------*\
  =========                 |
  \\      /  F ield         | OpenFOAM: The Open Source CFD Toolbox
   \\    /   O peration     | Website:  https://openfoam.org
    \\  /    A nd           | Version:  12
     \\/     M anipulation  |
\*---------------------------------------------------------------------------*/
FoamFile
{
    format      ascii;
    class       volScalarField;
    location    "140";
    object      nut;
}
// * * * * * * * * * * * * * * * * * * * * * * * * * * * * * * * * * * * * * //

dimensions      [0 2 -1 0 0 0 0];

internalField   nonuniform List<scalar> 
16227
(
0.000978543
0.000978543
0.000978543
0.000978543
0.000978543
0.000978543
0.000978543
0.000978543
0.000978543
0.000978543
0.000978543
0.000978543
0.000978544
0.000978544
0.000978544
0.000978544
0.000978544
0.000978544
0.000978544
0.000978544
0.000978544
0.000978544
0.000978544
0.000978544
0.000978544
0.000978544
0.000978544
0.000978544
0.000978544
0.000978544
0.000978544
0.000978544
0.000978544
0.000978544
0.000978544
0.000978544
0.000978544
0.000978544
0.000978544
0.000978544
0.000978544
0.000978544
0.000978544
0.000978544
0.000978544
0.000978544
0.000978544
0.000978544
0.000978544
0.000978544
0.000978544
0.000978543
0.000978543
0.000978543
0.000978543
0.000978543
0.000978543
0.000978543
0.000978543
0.000978543
0.000972834
0.000972834
0.000972834
0.000972834
0.000972834
0.000972834
0.000972834
0.000972834
0.000972834
0.000972834
0.000972835
0.000972835
0.000972836
0.000972837
0.000972837
0.000972837
0.000972837
0.000972837
0.000972837
0.000972837
0.000972837
0.000972837
0.000972837
0.000972837
0.000972837
0.000972837
0.000972837
0.000972837
0.000972837
0.000972836
0.000972837
0.000972837
0.000972837
0.000972837
0.000972837
0.000972837
0.000972836
0.000972836
0.000972836
0.000972836
0.000972836
0.000972836
0.000972836
0.000972836
0.000972836
0.000972836
0.000972836
0.000972836
0.000972836
0.000972836
0.000972836
0.000972836
0.000972835
0.000972835
0.000972834
0.000972834
0.000972835
0.000972834
0.000972834
0.000972834
0.000967494
0.000967494
0.000967494
0.000967494
0.000967494
0.000967495
0.000967495
0.000967495
0.000967495
0.000967495
0.000967495
0.000967495
0.000967498
0.000967498
0.000967498
0.000967498
0.000967498
0.000967498
0.000967499
0.000967498
0.000967498
0.000967499
0.000967499
0.000967499
0.000967498
0.000967498
0.000967498
0.000967498
0.000967498
0.000967498
0.000967498
0.000967498
0.000967498
0.000967498
0.000967498
0.000967498
0.000967498
0.000967498
0.000967498
0.000967498
0.000967498
0.000967498
0.000967498
0.000967498
0.000967498
0.000967498
0.000967497
0.000967498
0.000967498
0.000967497
0.000967497
0.000967495
0.000967495
0.000967495
0.000967494
0.000967495
0.000967495
0.000967494
0.000967494
0.000967494
0.000962481
0.000962482
0.000962482
0.000962482
0.000962482
0.000962482
0.000962482
0.000962482
0.000962482
0.000962482
0.000962483
0.000962483
0.000962486
0.000962487
0.000962487
0.000962487
0.000962487
0.000962487
0.000962487
0.000962485
0.000962486
0.000962487
0.000962487
0.000962487
0.000962487
0.000962487
0.000962486
0.000962486
0.000962486
0.000962485
0.000962486
0.000962486
0.000962486
0.000962486
0.000962485
0.000962485
0.000962485
0.000962485
0.000962485
0.000962485
0.000962485
0.000962485
0.000962485
0.000962485
0.000962485
0.000962485
0.000962485
0.000962485
0.000962485
0.000962485
0.000962484
0.000962482
0.000962481
0.000962481
0.000962482
0.000962482
0.000962482
0.000962481
0.000962481
0.000962481
0.000957761
0.000957761
0.000957761
0.000957761
0.000957761
0.000957762
0.000957762
0.000957761
0.000957762
0.000957762
0.000957762
0.000957763
0.000957765
0.000957767
0.000957767
0.000957767
0.000957767
0.000957767
0.000957765
0.000957764
0.000957766
0.000957767
0.000957766
0.000957766
0.000957766
0.000957766
0.000957765
0.000957765
0.000957765
0.000957764
0.000957764
0.000957764
0.000957764
0.000957764
0.000957764
0.000957764
0.000957764
0.000957764
0.000957764
0.000957764
0.000957764
0.000957764
0.000957764
0.000957764
0.000957764
0.000957764
0.000957764
0.000957764
0.000957764
0.000957763
0.000957761
0.00095776
0.000957759
0.00095776
0.00095776
0.000957761
0.00095776
0.000957759
0.000957759
0.000957759
0.000953301
0.000953302
0.000953302
0.000953302
0.000953302
0.000953302
0.000953303
0.000953303
0.000953302
0.000953302
0.000953303
0.000953303
0.000953304
0.000953308
0.000953308
0.000953309
0.000953309
0.000953308
0.000953305
0.000953304
0.000953307
0.000953307
0.000953307
0.000953307
0.000953306
0.000953306
0.000953306
0.000953305
0.000953304
0.000953303
0.000953304
0.000953304
0.000953303
0.000953303
0.000953303
0.000953303
0.000953303
0.000953303
0.000953303
0.000953303
0.000953303
0.000953303
0.000953303
0.000953304
0.000953304
0.000953304
0.000953304
0.000953304
0.000953304
0.000953303
0.0009533
0.000953299
0.000953299
0.000953299
0.0009533
0.0009533
0.000953299
0.000953299
0.000953299
0.000953299
0.000949078
0.000949079
0.000949079
0.000949079
0.000949079
0.000949079
0.00094908
0.00094908
0.00094908
0.00094908
0.000949079
0.00094908
0.000949081
0.000949084
0.000949086
0.000949086
0.000949086
0.000949082
0.000949081
0.000949081
0.000949083
0.000949084
0.000949083
0.000949083
0.000949082
0.000949081
0.000949081
0.00094908
0.000949079
0.000949077
0.000949078
0.000949078
0.000949077
0.000949077
0.000949077
0.000949077
0.000949077
0.000949077
0.000949077
0.000949077
0.000949077
0.000949078
0.000949078
0.000949078
0.000949079
0.000949079
0.000949079
0.000949079
0.000949079
0.000949076
0.000949074
0.000949074
0.000949074
0.000949075
0.000949075
0.000949075
0.000949075
0.000949074
0.000949074
0.000949074
0.000945069
0.000945069
0.00094507
0.00094507
0.00094507
0.00094507
0.000945071
0.000945071
0.000945071
0.00094507
0.00094507
0.00094507
0.000945071
0.000945072
0.000945076
0.000945077
0.000945076
0.000945072
0.000945071
0.000945071
0.000945073
0.000945073
0.000945073
0.000945072
0.000945071
0.00094507
0.000945069
0.000945068
0.000945066
0.000945064
0.000945065
0.000945064
0.000945064
0.000945064
0.000945063
0.000945063
0.000945063
0.000945063
0.000945064
0.000945064
0.000945064
0.000945065
0.000945065
0.000945066
0.000945066
0.000945067
0.000945067
0.000945067
0.000945066
0.000945063
0.000945062
0.000945062
0.000945063
0.000945063
0.000945063
0.000945064
0.000945063
0.000945063
0.000945063
0.000945063
0.000941255
0.000941255
0.000941255
0.000941255
0.000941255
0.000941256
0.000941256
0.000941256
0.000941257
0.000941256
0.000941256
0.000941255
0.000941255
0.000941257
0.000941261
0.000941263
0.000941261
0.000941257
0.000941255
0.000941255
0.000941257
0.000941257
0.000941256
0.000941254
0.000941253
0.000941252
0.00094125
0.000941249
0.000941247
0.000941245
0.000941245
0.000941244
0.000941244
0.000941243
0.000941243
0.000941243
0.000941243
0.000941243
0.000941244
0.000941244
0.000941245
0.000941245
0.000941246
0.000941247
0.000941247
0.000941248
0.000941248
0.000941248
0.000941245
0.000941244
0.000941243
0.000941244
0.000941245
0.000941245
0.000941246
0.000941246
0.000941246
0.000941245
0.000941245
0.000941245
0.000937618
0.000937618
0.000937618
0.000937619
0.000937619
0.000937619
0.00093762
0.00093762
0.00093762
0.00093762
0.000937619
0.000937619
0.000937619
0.00093762
0.000937624
0.000937625
0.000937621
0.000937619
0.000937617
0.000937617
0.000937619
0.000937618
0.000937616
0.000937615
0.000937613
0.000937611
0.000937609
0.000937607
0.000937604
0.000937602
0.000937601
0.000937601
0.0009376
0.000937599
0.000937599
0.000937599
0.000937599
0.000937599
0.0009376
0.0009376
0.000937601
0.000937602
0.000937603
0.000937604
0.000937605
0.000937606
0.000937607
0.000937606
0.000937603
0.000937602
0.000937602
0.000937603
0.000937604
0.000937604
0.000937605
0.000937605
0.000937605
0.000937605
0.000937605
0.000937605
0.000934145
0.000934145
0.000934145
0.000934145
0.000934145
0.000934146
0.000934146
0.000934146
0.000934146
0.000934146
0.000934146
0.000934145
0.000934144
0.000934145
0.000934147
0.00093415
0.000934146
0.000934144
0.000934142
0.000934141
0.000934142
0.000934142
0.00093414
0.000934137
0.000934134
0.000934132
0.000934129
0.000934126
0.000934124
0.00093412
0.00093412
0.000934118
0.000934117
0.000934116
0.000934116
0.000934116
0.000934116
0.000934117
0.000934117
0.000934118
0.000934119
0.00093412
0.000934122
0.000934123
0.000934124
0.000934126
0.000934126
0.000934124
0.000934123
0.000934122
0.000934123
0.000934124
0.000934125
0.000934126
0.000934127
0.000934127
0.000934127
0.000934127
0.000934127
0.000934127
0.000930822
0.000930822
0.000930822
0.000930822
0.000930822
0.000930822
0.000930823
0.000930823
0.000930823
0.000930823
0.000930823
0.000930822
0.000930821
0.000930821
0.000930822
0.000930825
0.000930822
0.000930819
0.000930817
0.000930815
0.000930814
0.000930814
0.000930812
0.000930809
0.000930805
0.000930802
0.000930798
0.000930795
0.000930792
0.000930787
0.000930786
0.000930785
0.000930783
0.000930782
0.000930782
0.000930781
0.000930782
0.000930782
0.000930783
0.000930784
0.000930786
0.000930787
0.000930789
0.000930791
0.000930793
0.000930793
0.000930792
0.000930792
0.000930792
0.000930792
0.000930793
0.000930794
0.000930795
0.000930797
0.000930797
0.000930798
0.000930798
0.000930798
0.000930798
0.000930798
0.000927637
0.000927637
0.000927637
0.000927637
0.000927637
0.000927638
0.000927638
0.000927638
0.000927638
0.000927638
0.000927638
0.000927637
0.000927636
0.000927635
0.000927635
0.000927635
0.000927635
0.000927633
0.00092763
0.000927628
0.000927625
0.000927626
0.000927623
0.000927619
0.000927614
0.00092761
0.000927605
0.000927601
0.000927597
0.000927592
0.00092759
0.000927588
0.000927586
0.000927585
0.000927584
0.000927584
0.000927584
0.000927585
0.000927586
0.000927588
0.000927589
0.000927592
0.000927594
0.000927596
0.000927598
0.000927598
0.000927598
0.000927599
0.000927598
0.000927599
0.0009276
0.000927602
0.000927604
0.000927605
0.000927606
0.000927607
0.000927607
0.000927607
0.000927607
0.000927607
0.00092458
0.00092458
0.00092458
0.00092458
0.000924581
0.000924581
0.000924582
0.000924582
0.000924582
0.000924582
0.000924582
0.000924581
0.00092458
0.000924579
0.000924578
0.000924577
0.000924577
0.000924575
0.000924572
0.000924569
0.000924565
0.000924565
0.000924561
0.000924556
0.000924551
0.000924545
0.00092454
0.000924534
0.000924529
0.000924523
0.000924521
0.000924518
0.000924515
0.000924514
0.000924513
0.000924512
0.000924513
0.000924514
0.000924515
0.000924517
0.00092452
0.000924522
0.000924525
0.000924527
0.000924529
0.000924529
0.00092453
0.000924532
0.000924532
0.000924533
0.000924535
0.000924537
0.000924539
0.00092454
0.000924542
0.000924543
0.000924543
0.000924543
0.000924544
0.000924544
0.000921642
0.000921643
0.000921643
0.000921643
0.000921643
0.000921644
0.000921644
0.000921645
0.000921645
0.000921645
0.000921645
0.000921644
0.000921643
0.000921642
0.000921641
0.00092164
0.00092164
0.000921637
0.000921633
0.000921629
0.000921625
0.000921624
0.000921619
0.000921613
0.000921606
0.000921599
0.000921593
0.000921586
0.000921579
0.000921572
0.000921569
0.000921565
0.000921562
0.00092156
0.000921559
0.000921558
0.000921559
0.00092156
0.000921562
0.000921564
0.000921567
0.00092157
0.000921573
0.000921576
0.000921576
0.000921578
0.00092158
0.000921583
0.000921584
0.000921586
0.000921588
0.00092159
0.000921592
0.000921594
0.000921596
0.000921597
0.000921597
0.000921598
0.000921598
0.000921599
0.000918815
0.000918816
0.000918816
0.000918816
0.000918817
0.000918817
0.000918818
0.000918819
0.000918819
0.000918819
0.000918819
0.000918818
0.000918817
0.000918816
0.000918815
0.000918814
0.000918813
0.00091881
0.000918806
0.000918801
0.000918796
0.000918793
0.000918788
0.000918781
0.000918772
0.000918764
0.000918756
0.000918748
0.00091874
0.000918731
0.000918727
0.000918722
0.000918718
0.000918716
0.000918714
0.000918714
0.000918714
0.000918716
0.000918718
0.000918721
0.000918724
0.000918728
0.000918731
0.000918734
0.000918735
0.000918738
0.000918741
0.000918743
0.000918745
0.000918747
0.000918751
0.000918753
0.000918756
0.000918758
0.00091876
0.000918761
0.000918762
0.000918762
0.000918763
0.000918763
0.000916092
0.000916092
0.000916092
0.000916093
0.000916093
0.000916094
0.000916095
0.000916096
0.000916096
0.000916097
0.000916097
0.000916096
0.000916095
0.000916094
0.000916093
0.000916092
0.000916091
0.000916088
0.000916083
0.000916077
0.000916071
0.000916065
0.00091606
0.000916052
0.000916043
0.000916033
0.000916023
0.000916013
0.000916003
0.000915993
0.000915988
0.000915982
0.000915977
0.000915974
0.000915972
0.000915971
0.000915971
0.000915973
0.000915975
0.000915979
0.000915983
0.000915987
0.00091599
0.000915992
0.000915995
0.000915999
0.000916003
0.000916006
0.000916009
0.000916012
0.000916016
0.000916019
0.000916022
0.000916024
0.000916026
0.000916028
0.000916029
0.000916029
0.00091603
0.00091603
0.000913465
0.000913465
0.000913465
0.000913466
0.000913467
0.000913468
0.000913469
0.00091347
0.000913471
0.000913471
0.000913472
0.000913471
0.000913471
0.00091347
0.000913468
0.000913468
0.000913467
0.000913463
0.000913458
0.000913451
0.000913444
0.000913436
0.000913431
0.000913422
0.000913411
0.0009134
0.000913388
0.000913376
0.000913364
0.000913353
0.000913345
0.000913338
0.000913332
0.000913327
0.000913325
0.000913324
0.000913324
0.000913326
0.000913329
0.000913332
0.000913337
0.000913341
0.000913343
0.000913347
0.000913352
0.000913357
0.000913361
0.000913365
0.000913368
0.000913372
0.000913376
0.00091338
0.000913383
0.000913386
0.000913389
0.00091339
0.000913391
0.000913392
0.000913393
0.000913393
0.000910928
0.000910928
0.000910929
0.00091093
0.000910931
0.000910932
0.000910933
0.000910935
0.000910936
0.000910937
0.000910938
0.000910938
0.000910937
0.000910937
0.000910936
0.000910935
0.000910934
0.000910931
0.000910925
0.000910919
0.000910911
0.000910902
0.000910895
0.000910886
0.000910873
0.00091086
0.000910846
0.000910832
0.000910818
0.000910804
0.000910795
0.000910786
0.000910778
0.000910772
0.000910768
0.000910767
0.000910766
0.000910768
0.000910771
0.000910775
0.00091078
0.000910784
0.000910787
0.000910792
0.000910798
0.000910804
0.000910808
0.000910813
0.000910817
0.000910822
0.000910827
0.000910831
0.000910835
0.000910838
0.000910841
0.000910843
0.000910844
0.000910845
0.000910846
0.000910846
0.000908476
0.000908476
0.000908477
0.000908478
0.000908479
0.000908481
0.000908483
0.000908485
0.000908486
0.000908488
0.000908489
0.00090849
0.00090849
0.00090849
0.00090849
0.000908489
0.000908488
0.000908486
0.000908481
0.000908474
0.000908465
0.000908456
0.000908446
0.000908438
0.000908425
0.00090841
0.000908395
0.000908378
0.000908362
0.000908346
0.000908333
0.000908321
0.000908311
0.000908303
0.000908298
0.000908295
0.000908294
0.000908295
0.000908298
0.000908301
0.000908306
0.00090831
0.000908315
0.000908322
0.000908329
0.000908335
0.00090834
0.000908345
0.000908351
0.000908357
0.000908362
0.000908366
0.00090837
0.000908374
0.000908377
0.000908379
0.000908381
0.000908382
0.000908383
0.000908383
0.000906104
0.000906104
0.000906105
0.000906106
0.000906108
0.00090611
0.000906112
0.000906115
0.000906117
0.000906119
0.000906121
0.000906123
0.000906124
0.000906125
0.000906125
0.000906125
0.000906124
0.000906123
0.000906119
0.000906113
0.000906105
0.000906096
0.000906085
0.000906078
0.000906065
0.000906049
0.000906032
0.000906014
0.000905994
0.000905975
0.000905958
0.000905943
0.000905929
0.000905919
0.000905911
0.000905906
0.000905903
0.000905903
0.000905904
0.000905908
0.000905911
0.000905916
0.000905923
0.000905931
0.000905938
0.000905944
0.000905951
0.000905957
0.000905964
0.00090597
0.000905976
0.000905981
0.000905985
0.000905989
0.000905992
0.000905995
0.000905997
0.000905998
0.000905999
0.000906
0.000903806
0.000903807
0.000903808
0.00090381
0.000903811
0.000903814
0.000903817
0.00090382
0.000903823
0.000903826
0.000903829
0.000903832
0.000903834
0.000903837
0.000903838
0.000903839
0.00090384
0.00090384
0.000903838
0.000903833
0.000903827
0.000903819
0.000903811
0.000903804
0.000903793
0.000903779
0.000903761
0.000903741
0.000903719
0.000903694
0.000903673
0.000903652
0.000903632
0.000903616
0.000903604
0.000903596
0.00090359
0.000903587
0.000903588
0.00090359
0.000903593
0.000903599
0.000903607
0.000903615
0.000903623
0.00090363
0.000903637
0.000903645
0.000903652
0.000903659
0.000903665
0.00090367
0.000903675
0.000903679
0.000903683
0.000903686
0.000903687
0.000903689
0.00090369
0.000903691
0.00090158
0.00090158
0.000901582
0.000901583
0.000901586
0.000901589
0.000901593
0.000901597
0.000901601
0.000901605
0.000901609
0.000901613
0.000901617
0.000901621
0.000901625
0.000901627
0.00090163
0.000901633
0.000901634
0.000901633
0.00090163
0.000901626
0.000901622
0.000901618
0.000901621
0.00090161
0.000901594
0.000901573
0.000901547
0.000901516
0.000901486
0.000901456
0.000901427
0.000901403
0.000901384
0.00090137
0.000901354
0.000901347
0.000901343
0.000901344
0.000901348
0.000901354
0.000901362
0.00090137
0.000901378
0.000901386
0.000901394
0.000901403
0.000901411
0.000901418
0.000901425
0.00090143
0.000901436
0.00090144
0.000901444
0.000901447
0.000901449
0.00090145
0.000901451
0.000901452
0.000899419
0.00089942
0.000899422
0.000899424
0.000899427
0.000899431
0.000899435
0.00089944
0.000899446
0.000899451
0.000899457
0.000899463
0.000899469
0.000899475
0.000899481
0.000899487
0.000899492
0.000899499
0.000899505
0.000899509
0.000899513
0.000899517
0.000899522
0.000899551
0.00090054
0.000900538
0.000900525
0.000900505
0.000900477
0.000900442
0.000900406
0.000900369
0.000900333
0.000900301
0.000900277
0.000900257
0.000899209
0.00089918
0.000899172
0.00089917
0.000899173
0.000899179
0.000899186
0.000899193
0.000899201
0.00089921
0.000899219
0.000899228
0.000899237
0.000899244
0.000899251
0.000899257
0.000899263
0.000899267
0.000899271
0.000899275
0.000899277
0.000899278
0.00089928
0.00089928
0.000897322
0.000897323
0.000897325
0.000897328
0.000897331
0.000897336
0.000897341
0.000897347
0.000897354
0.000897362
0.000897369
0.000897377
0.000897386
0.000897395
0.000897405
0.000897414
0.000897424
0.000897436
0.000897449
0.000897463
0.000897478
0.000897496
0.000897537
0.000898517
0.000898473
0.000898497
0.000898501
0.000898489
0.000898461
0.000898416
0.000898362
0.0008983
0.000898238
0.000898184
0.00089814
0.000898103
0.000898136
0.000897097
0.000897074
0.000897066
0.000897065
0.000897069
0.000897075
0.000897081
0.000897089
0.000897099
0.000897108
0.000897117
0.000897126
0.000897134
0.000897141
0.000897148
0.000897153
0.000897158
0.000897162
0.000897166
0.000897168
0.00089717
0.000897171
0.000897172
0.000895284
0.000895285
0.000895288
0.000895291
0.000895295
0.0008953
0.000895307
0.000895315
0.000895323
0.000895332
0.000895342
0.000895353
0.000895365
0.000895378
0.000895392
0.000895407
0.000895424
0.000895444
0.000895467
0.000895496
0.000895529
0.00089557
0.000895658
0.000896554
0.000896541
0.000897064
0.00089709
0.000897091
0.000897068
0.000897017
0.000896944
0.000896854
0.000896759
0.000896673
0.000896607
0.000896063
0.000896056
0.000895095
0.00089505
0.00089503
0.000895023
0.000895023
0.000895026
0.000895031
0.000895039
0.000895049
0.000895058
0.000895068
0.000895076
0.000895084
0.000895092
0.000895098
0.000895104
0.000895109
0.000895113
0.000895117
0.000895119
0.000895121
0.000895122
0.000895123
0.000893302
0.000893304
0.000893306
0.00089331
0.000893315
0.000893321
0.000893329
0.000893338
0.000893349
0.00089336
0.000893373
0.000893387
0.000893403
0.000893421
0.000893441
0.000893463
0.000893489
0.00089352
0.000893559
0.000893607
0.000893669
0.000893753
0.000893907
0.000894733
0.000894774
0.000895306
0.000895383
0.000895425
0.000895437
0.000895399
0.000895303
0.000895154
0.000894977
0.000894803
0.000894658
0.00089415
0.000894062
0.000893179
0.000893099
0.00089306
0.000893045
0.000893038
0.000893037
0.000893042
0.000893049
0.000893058
0.000893067
0.000893076
0.000893084
0.000893092
0.0008931
0.000893106
0.000893112
0.000893117
0.000893121
0.000893125
0.000893127
0.000893129
0.00089313
0.000893131
0.000891373
0.000891375
0.000891378
0.000891382
0.000891388
0.000891396
0.000891405
0.000891416
0.000891429
0.000891443
0.000891459
0.000891477
0.000891497
0.000891521
0.000891548
0.00089158
0.000891618
0.000891665
0.000891725
0.000891803
0.000891907
0.000892061
0.000892313
0.000893092
0.000893244
0.000893843
0.000894034
0.000894204
0.000894341
0.000894375
0.000894249
0.000893965
0.000893591
0.000893212
0.000892886
0.000892358
0.000892172
0.000891348
0.000891222
0.000891157
0.000891129
0.000891114
0.000891109
0.00089111
0.000891115
0.000891123
0.000891131
0.000891139
0.000891147
0.000891155
0.000891162
0.000891169
0.000891175
0.00089118
0.000891184
0.000891187
0.00089119
0.000891191
0.000891193
0.000891194
0.000889495
0.000889497
0.0008895
0.000889505
0.000889512
0.000889521
0.000889532
0.000889545
0.000889559
0.000889576
0.000889596
0.000889618
0.000889644
0.000889675
0.000889711
0.000889754
0.000889808
0.000889877
0.000889966
0.000890089
0.000890253
0.000890518
0.000890914
0.000891686
0.000892078
0.000892858
0.000893332
0.000893953
0.000894567
0.000894894
0.000894687
0.000893976
0.000893034
0.000892131
0.000891408
0.000890678
0.000890413
0.000889601
0.000889419
0.000889321
0.000889275
0.00088925
0.000889238
0.000889234
0.000889236
0.000889241
0.000889248
0.000889256
0.000889263
0.00088927
0.000889277
0.000889283
0.000889289
0.000889294
0.000889298
0.000889301
0.000889304
0.000889305
0.000889307
0.000889308
0.000887664
0.000887667
0.000887671
0.000887676
0.000887684
0.000887694
0.000887707
0.000887722
0.000887739
0.000887759
0.000887782
0.00088781
0.000887842
0.00088788
0.000887927
0.000887985
0.000888058
0.000888154
0.000888284
0.000888467
0.00088872
0.000889156
0.000889755
0.000890589
0.000891491
0.000892605
0.000893912
0.000896086
0.000898657
0.000900356
0.000899802
0.000897336
0.000894442
0.00089211
0.000890503
0.000889126
0.000888821
0.000887937
0.000887689
0.000887555
0.000887483
0.000887443
0.000887422
0.000887412
0.00088741
0.000887412
0.000887417
0.000887423
0.000887429
0.000887436
0.000887442
0.000887448
0.000887453
0.000887457
0.000887461
0.000887465
0.000887467
0.000887468
0.00088747
0.000887471
0.000885879
0.000885882
0.000885886
0.000885893
0.000885902
0.000885913
0.000885927
0.000885944
0.000885964
0.000885988
0.000886015
0.000886048
0.000886087
0.000886135
0.000886194
0.000886269
0.000886366
0.000886496
0.000886676
0.000886939
0.000887315
0.000887998
0.000888872
0.000889889
0.000891747
0.000893482
0.000897255
0.000904969
0.000917108
0.000927189
0.000924333
0.000911973
0.000900954
0.000894313
0.000890666
0.000887878
0.000887433
0.000886354
0.000886026
0.000885855
0.00088575
0.000885693
0.000885659
0.000885642
0.000885634
0.000885632
0.000885634
0.000885638
0.000885643
0.000885649
0.000885654
0.000885659
0.000885664
0.000885668
0.000885672
0.000885675
0.000885677
0.000885678
0.000885679
0.000885681
0.000884137
0.00088414
0.000884145
0.000884152
0.000884162
0.000884175
0.000884191
0.00088421
0.000884233
0.00088426
0.000884292
0.000884331
0.000884378
0.000884436
0.000884509
0.000884602
0.000884727
0.000884898
0.00088514
0.000885506
0.00088604
0.000887057
0.000888275
0.00088967
0.000893053
0.000896145
0.000906827
0.000882464
0.000387569
0.000261719
0.000291485
0.000494326
0.000921849
0.00090096
0.000892524
0.000887363
0.000886264
0.000884859
0.000884422
0.000884216
0.000884072
0.000883995
0.000883947
0.00088392
0.000883906
0.0008839
0.000883899
0.0008839
0.000883904
0.000883908
0.000883912
0.000883916
0.000883921
0.000883924
0.000883927
0.00088393
0.000883932
0.000883933
0.000883934
0.000883935
0.000882436
0.00088244
0.000882445
0.000882453
0.000882464
0.000882478
0.000882496
0.000882517
0.000882543
0.000882574
0.000882611
0.000882656
0.000882711
0.00088278
0.000882868
0.000882983
0.000883139
0.000883356
0.00088367
0.000884158
0.000884886
0.000886308
0.000887906
0.000889953
0.000895415
0.000901488
0.000928715
0.000439711
0.000172329
9.1377e-05
0.000115393
0.000226013
0.000567708
0.000915178
0.00089638
0.000888071
0.00088529
0.000883462
0.000882866
0.000882632
0.000882446
0.000882347
0.000882283
0.000882246
0.000882224
0.000882213
0.000882208
0.000882206
0.000882208
0.00088221
0.000882213
0.000882216
0.00088222
0.000882223
0.000882226
0.000882228
0.000882229
0.000882231
0.000882231
0.000882232
0.000880774
0.000880778
0.000880784
0.000880793
0.000880805
0.000880821
0.00088084
0.000880864
0.000880893
0.000880928
0.000880969
0.000881021
0.000881084
0.000881164
0.000881269
0.000881407
0.000881596
0.000881864
0.000882257
0.000882882
0.000883827
0.000885692
0.000887636
0.000890645
0.000898547
0.000909631
0.000959958
0.000409106
0.000264019
0.000158783
0.000471826
0.000936296
0.00090127
0.000890004
0.000884447
0.000882175
0.000881356
0.000881094
0.000880867
0.000880746
0.000880664
0.000880615
0.000880585
0.000880568
0.000880559
0.000880554
0.000880553
0.000880554
0.000880555
0.000880557
0.00088056
0.000880562
0.000880564
0.000880566
0.000880568
0.000880569
0.000880569
0.000880571
0.00087915
0.000879154
0.00087916
0.00087917
0.000879183
0.0008792
0.000879222
0.000879248
0.00087928
0.000879318
0.000879365
0.000879423
0.000879495
0.000879587
0.000879707
0.000879869
0.000880093
0.000880414
0.000880889
0.000881656
0.000882828
0.000885126
0.000887308
0.000891559
0.000902069
0.000918771
0.000992983
0.00056514
1.99131e-05
0.000123715
0.000155544
0.000446248
0.000955132
0.0009049
0.000892382
0.000883677
0.000881015
0.000879899
0.000879599
0.000879334
0.000879189
0.000879089
0.000879028
0.000878989
0.000878965
0.000878951
0.000878943
0.000878939
0.000878938
0.000878938
0.000878939
0.00087894
0.000878941
0.000878943
0.000878944
0.000878945
0.000878946
0.000878947
0.000878948
0.000877562
0.000877566
0.000877573
0.000877583
0.000877597
0.000877616
0.000877639
0.000877668
0.000877702
0.000877744
0.000877796
0.00087786
0.000877941
0.000878044
0.000878181
0.000878366
0.000878624
0.000878997
0.000879554
0.000880458
0.000881865
0.000884527
0.000886889
0.000892481
0.000905794
0.000926126
0.00103274
0.000779836
3.64714e-05
0.00170208
0.00181249
0.000351948
0.000550547
0.000967345
0.000906102
0.000894394
0.000882993
0.00088001
0.000878508
0.000878144
0.000877843
0.000877675
0.000877556
0.000877481
0.000877433
0.000877402
0.000877383
0.000877371
0.000877364
0.00087736
0.000877358
0.000877358
0.000877358
0.000877358
0.000877359
0.00087736
0.00087736
0.000877361
0.000877361
0.000877363
0.000876007
0.000876012
0.000876019
0.00087603
0.000876046
0.000876065
0.00087609
0.000876121
0.000876159
0.000876205
0.000876261
0.000876331
0.000876419
0.000876534
0.000876686
0.000876893
0.000877184
0.000877605
0.000878238
0.000879264
0.000880908
0.000883834
0.000886431
0.000893282
0.000909753
0.000931269
0.00107163
0.000978122
2.4469e-05
0.000469528
0.00141576
0.00105112
0.00105889
0.000989009
0.000908455
0.000896511
0.000882574
0.000879228
0.000877202
0.000876731
0.000876392
0.000876199
0.000876061
0.000875972
0.000875915
0.000875876
0.000875852
0.000875836
0.000875825
0.000875819
0.000875815
0.000875813
0.000875812
0.000875811
0.000875811
0.000875811
0.000875811
0.000875812
0.000875812
0.000875813
0.000874486
0.000874491
0.000874499
0.000874511
0.000874527
0.000874548
0.000874574
0.000874607
0.000874647
0.000874697
0.000874757
0.000874833
0.000874929
0.000875054
0.000875221
0.000875447
0.000875766
0.000876228
0.000876932
0.000878056
0.000879926
0.000883027
0.000886018
0.000893949
0.000914005
0.000937797
0.00110178
0.0011116
5.40466e-05
0.000133612
0.000208727
0.000770315
0.00133725
0.00105395
0.000916913
0.000900367
0.000882692
0.000878742
0.000876002
0.000875359
0.000874978
0.000874759
0.000874602
0.000874499
0.000874431
0.000874386
0.000874355
0.000874335
0.000874321
0.000874312
0.000874307
0.000874303
0.0008743
0.000874299
0.000874298
0.000874297
0.000874297
0.000874296
0.000874296
0.000874298
0.000872996
0.000873002
0.00087301
0.000873022
0.000873039
0.000873062
0.00087309
0.000873125
0.000873167
0.00087322
0.000873284
0.000873365
0.000873468
0.000873602
0.00087378
0.000874023
0.000874366
0.000874864
0.000875628
0.000876827
0.000878884
0.000882109
0.000885714
0.00089467
0.000918053
0.000949692
0.00111625
0.00121914
0.000189062
6.85415e-05
0.000103999
0.000579338
0.000855283
0.00114182
0.000931945
0.000906163
0.00088347
0.000878567
0.000874916
0.000874025
0.000873598
0.000873352
0.000873176
0.000873059
0.000872981
0.000872928
0.000872892
0.000872868
0.000872851
0.000872839
0.000872831
0.000872825
0.000872822
0.000872819
0.000872817
0.000872816
0.000872815
0.000872814
0.000872814
0.000872815
0.000871537
0.000871543
0.000871551
0.000871564
0.000871582
0.000871605
0.000871635
0.000871672
0.000871717
0.000871772
0.00087184
0.000871925
0.000872034
0.000872174
0.000872362
0.00087262
0.000872985
0.000873511
0.000874321
0.000875571
0.000877762
0.000881089
0.000885516
0.000895648
0.000921161
0.000964928
0.0011193
0.00129946
0.000494337
7.44974e-05
6.05762e-05
0.000578471
0.00048062
0.00108253
0.000947292
0.000911577
0.000884726
0.000878624
0.000873933
0.000872725
0.000872247
0.000871973
0.000871779
0.000871649
0.000871562
0.000871502
0.000871461
0.000871432
0.000871412
0.000871397
0.000871387
0.00087138
0.000871375
0.000871371
0.000871368
0.000871366
0.000871365
0.000871363
0.000871363
0.000871364
0.000870107
0.000870113
0.000870122
0.000870135
0.000870154
0.000870178
0.000870209
0.000870247
0.000870294
0.000870352
0.000870423
0.000870512
0.000870624
0.000870772
0.000870969
0.00087124
0.00087162
0.000872165
0.000873009
0.000874292
0.000876556
0.000879971
0.000885336
0.000896878
0.000922958
0.000976868
0.00112591
0.00138264
0.00112274
0.000214492
0.000329875
0.000261001
0.000292986
0.00102892
0.000959329
0.000914475
0.000885799
0.000878733
0.000873023
0.000871455
0.000870922
0.000870622
0.000870411
0.000870267
0.000870172
0.000870105
0.000870059
0.000870026
0.000870003
0.000869986
0.000869973
0.000869964
0.000869958
0.000869953
0.000869949
0.000869947
0.000869944
0.000869943
0.000869942
0.000869943
0.000868705
0.000868711
0.00086872
0.000868734
0.000868753
0.000868779