/*--------------------------------*- C++ -*----------------------------------*\
  =========                 |
  \\      /  F ield         | OpenFOAM: The Open Source CFD Toolbox
   \\    /   O peration     | Website:  https://openfoam.org
    \\  /    A nd           | Version:  12
     \\/     M anipulation  |
\*---------------------------------------------------------------------------*/
FoamFile
{
    format      ascii;
    class       volScalarField;
    location    "140";
    object      omega;
}
// * * * * * * * * * * * * * * * * * * * * * * * * * * * * * * * * * * * * * //

dimensions      [0 0 -1 0 0 0 0];

internalField   nonuniform List<scalar> 
16227
(
9.34702
9.34704
9.34704
9.34707
9.34706
9.3471
9.34709
9.34708
9.34707
9.34709
9.34713
9.34715
9.3472
9.3472
9.3472
9.3472
9.3472
9.3472
9.3472
9.3472
9.3472
9.3472
9.3472
9.3472
9.3472
9.3472
9.3472
9.34722
9.34722
9.3472
9.34721
9.3472
9.3472
9.3472
9.34721
9.3472
9.3472
9.3472
9.3472
9.3472
9.3472
9.3472
9.3472
9.3472
9.3472
9.3472
9.3472
9.34719
9.34717
9.34717
9.34717
9.34716
9.3471
9.3471
9.34706
9.34705
9.34707
9.34705
9.34703
9.34702
8.71806
8.71808
8.71807
8.71811
8.71811
8.71815
8.71814
8.71811
8.71812
8.71813
8.71818
8.7182
8.71834
8.7184
8.71841
8.71841
8.71841
8.71841
8.71841
8.71841
8.71842
8.71843
8.71843
8.71843
8.71843
8.71843
8.71843
8.71842
8.71841
8.71836
8.71841
8.71842
8.71842
8.71842
8.71842
8.71841
8.7184
8.7184
8.7184
8.7184
8.7184
8.7184
8.7184
8.71839
8.71839
8.71837
8.71837
8.71837
8.71838
8.71836
8.71834
8.71828
8.71817
8.71816
8.71812
8.7181
8.71814
8.71806
8.71808
8.71805
8.16622
8.16624
8.16624
8.16626
8.16625
8.16634
8.16629
8.16628
8.16629
8.1663
8.16634
8.16636
8.1666
8.16666
8.16667
8.16668
8.16668
8.16667
8.16669
8.16664
8.16667
8.16668
8.16668
8.16667
8.16667
8.16667
8.16666
8.16667
8.16665
8.16658
8.16663
8.16664
8.16665
8.16664
8.16665
8.16665
8.16665
8.16664
8.16662
8.16663
8.16663
8.16663
8.16662
8.16661
8.16661
8.16662
8.16661
8.16661
8.1666
8.16658
8.16654
8.16635
8.16628
8.16627
8.16625
8.16624
8.16628
8.16619
8.1662
8.16618
7.67837
7.67839
7.67839
7.6784
7.67841
7.67847
7.67848
7.67844
7.67845
7.67845
7.67849
7.67855
7.6788
7.67887
7.67889
7.6789
7.67891
7.67892
7.67885
7.67873
7.67883
7.67887
7.67885
7.67885
7.67885
7.67884
7.67883
7.67882
7.67879
7.6787
7.67877
7.67878
7.67877
7.67877
7.67877
7.67877
7.67877
7.67877
7.67877
7.67876
7.67877
7.67877
7.67876
7.67877
7.67876
7.67876
7.67876
7.67876
7.67877
7.67874
7.67862
7.67844
7.67834
7.67836
7.67836
7.67838
7.67835
7.67829
7.67829
7.67827
7.24418
7.24419
7.24419
7.24422
7.24422
7.24428
7.24431
7.24425
7.24426
7.24426
7.2443
7.24436
7.2446
7.24472
7.24474
7.24474
7.24474
7.24471
7.2445
7.24442
7.2446
7.24466
7.24465
7.24462
7.2446
7.24458
7.24456
7.24455
7.2445
7.2444
7.24447
7.24448
7.24448
7.24447
7.24446
7.24446
7.24447
7.24447
7.24447
7.24447
7.24448
7.2445
7.24449
7.24449
7.2445
7.24451
7.24451
7.24451
7.24451
7.24444
7.2442
7.2441
7.24403
7.24406
7.24408
7.24413
7.24407
7.244
7.244
7.24398
6.85539
6.85541
6.85541
6.85543
6.85543
6.85548
6.85552
6.85547
6.85546
6.85546
6.85547
6.8555
6.85562
6.8559
6.85596
6.85597
6.85596
6.85585
6.85561
6.85556
6.85576
6.8558
6.85577
6.85573
6.8557
6.85567
6.85564
6.8556
6.85555
6.85543
6.85549
6.85549
6.85549
6.85548
6.85548
6.85548
6.85549
6.85549
6.8555
6.85551
6.85552
6.85553
6.85554
6.85556
6.85557
6.85558
6.85559
6.8556
6.8556
6.85547
6.85524
6.85514
6.85511
6.85516
6.85521
6.8552
6.85515
6.85509
6.85509
6.85508
6.50536
6.50538
6.50538
6.50539
6.50539
6.50544
6.50548
6.50547
6.50543
6.50543
6.50541
6.50542
6.50552
6.50578
6.5059
6.50592
6.50588
6.50558
6.50545
6.50543
6.50563
6.50565
6.5056
6.50554
6.50549
6.50544
6.50538
6.50533
6.50527
6.50512
6.50518
6.50518
6.50516
6.50515
6.50515
6.50515
6.50515
6.50517
6.50519
6.50522
6.50523
6.50525
6.50528
6.5053
6.50533
6.50535
6.50536
6.50539
6.50533
6.50508
6.50496
6.50489
6.5049
6.50498
6.50499
6.50499
6.50495
6.5049
6.50491
6.50489
6.18866
6.18867
6.18867
6.18869
6.18868
6.18872
6.18876
6.18876
6.18872
6.18869
6.18868
6.18864
6.18869
6.18882
6.1891
6.18917
6.18909
6.18875
6.18862
6.18859
6.18878
6.18878
6.18871
6.18863
6.18854
6.18847
6.18839
6.18832
6.18822
6.18806
6.18811
6.1881
6.18808
6.18806
6.18806
6.18806
6.18808
6.1881
6.18812
6.18816
6.1882
6.18822
6.18827
6.18831
6.18835
6.18837
6.18841
6.18842
6.18831
6.18808
6.18798
6.18795
6.18801
6.18806
6.18807
6.18808
6.18804
6.188
6.18801
6.188
5.90081
5.90081
5.90082
5.90083
5.90083
5.90086
5.90089
5.90089
5.90088
5.90084
5.9008
5.90074
5.90076
5.90085
5.90118
5.90126
5.90109
5.90076
5.90064
5.90058
5.90075
5.90073
5.90062
5.90051
5.9004
5.90029
5.90018
5.90008
5.89996
5.89978
5.89981
5.89979
5.89976
5.89974
5.89973
5.89974
5.89976
5.8998
5.89983
5.89987
5.89993
5.89999
5.90004
5.90009
5.90014
5.90021
5.90024
5.9002
5.89996
5.89986
5.89981
5.89987
5.8999
5.89996
5.89997
5.89998
5.89997
5.89992
5.89993
5.89993
5.6381
5.63811
5.6381
5.63812
5.63811
5.63814
5.63818
5.63816
5.63815
5.63814
5.63808
5.638
5.63801
5.6381
5.63836
5.63843
5.6381
5.63788
5.63777
5.6377
5.63784
5.63778
5.63764
5.63749
5.63735
5.6372
5.63707
5.63693
5.63678
5.63657
5.63658
5.63654
5.6365
5.63648
5.63647
5.63648
5.63651
5.63656
5.63662
5.63667
5.63674
5.63681
5.6369
5.63697
5.63705
5.63712
5.63717
5.6371
5.63686
5.63679
5.63681
5.63685
5.6369
5.63696
5.63699
5.63701
5.63699
5.63697
5.63697
5.63697
5.39743
5.39743
5.39743
5.39744
5.39744
5.39746
5.39749
5.39747
5.39746
5.39744
5.3974
5.3973
5.39725
5.39729
5.39738
5.39757
5.39725
5.39706
5.39693
5.39683
5.39688
5.39683
5.39666
5.39647
5.39628
5.3961
5.39591
5.39574
5.39556
5.39532
5.39531
5.39525
5.3952
5.39517
5.39516
5.39518
5.39523
5.39528
5.39535
5.39544
5.39553
5.39562
5.39573
5.39582
5.39592
5.396
5.39599
5.3959
5.39578
5.39574
5.39579
5.39584
5.3959
5.39598
5.39601
5.39604
5.39603
5.39601
5.39602
5.39602
5.17617
5.17617
5.17617
5.17618
5.17618
5.1762
5.17621
5.17621
5.17619
5.17616
5.17611
5.17603
5.17595
5.17592
5.17597
5.17611
5.17586
5.17566
5.17548
5.17534
5.17522
5.17523
5.17506
5.17483
5.17459
5.17435
5.17413
5.17391
5.17368
5.17341
5.17338
5.1733
5.17324
5.1732
5.1732
5.17322
5.17327
5.17335
5.17343
5.17354
5.17366
5.17378
5.17391
5.17404
5.17415
5.17422
5.17413
5.17412
5.1741
5.17409
5.17415
5.17422
5.1743
5.17438
5.17442
5.17446
5.17446
5.17444
5.17446
5.17446
4.9721
4.97211
4.97211
4.97211
4.97211
4.97213
4.97214
4.97213
4.97211
4.97207
4.97203
4.97194
4.97186
4.97175
4.97171
4.97168
4.9716
4.97144
4.97123
4.97103
4.97083
4.97084
4.97063
4.97035
4.97005
4.96976
4.96948
4.96921
4.96894
4.96863
4.96857
4.96846
4.96838
4.96835
4.96834
4.96838
4.96844
4.96853
4.96866
4.96879
4.96894
4.9691
4.96925
4.9694
4.96953
4.96958
4.96953
4.96959
4.96957
4.96959
4.96967
4.96977
4.96986
4.96994
4.97
4.97004
4.97005
4.97005
4.97007
4.97007
4.78332
4.78334
4.78333
4.78334
4.78334
4.78336
4.78336
4.78336
4.78333
4.78329
4.78324
4.78315
4.78306
4.78295
4.78282
4.78276
4.7827
4.78252
4.78228
4.78204
4.78178
4.78174
4.78147
4.78112
4.78077
4.78041
4.78007
4.77975
4.77943
4.77907
4.77897
4.77885
4.77875
4.7787
4.77871
4.77875
4.77884
4.77895
4.7791
4.77927
4.77945
4.77964
4.77982
4.78
4.78009
4.78012
4.7802
4.78028
4.78031
4.78037
4.78047
4.78058
4.78068
4.78078
4.78085
4.78091
4.78092
4.78093
4.78095
4.78095
4.60821
4.60822
4.60822
4.60822
4.60823
4.60824
4.60825
4.60824
4.60822
4.60818
4.60812
4.60803
4.60792
4.6078
4.60767
4.60757
4.6075
4.60728
4.607
4.6067
4.6064
4.60628
4.60596
4.60554
4.60511
4.60469
4.60428
4.60389
4.60351
4.60311
4.60297
4.60281
4.6027
4.60265
4.60265
4.60271
4.60282
4.60297
4.60315
4.60336
4.60357
4.6038
4.60402
4.60418
4.60421
4.60436
4.60449
4.60461
4.60469
4.60478
4.60492
4.60504
4.60515
4.60526
4.60534
4.60541
4.60543
4.60545
4.60547
4.60548
4.44535
4.44535
4.44536
4.44536
4.44536
4.44539
4.4454
4.44538
4.44536
4.44532
4.44526
4.44516
4.44506
4.44492
4.44478
4.44466
4.44454
4.4443
4.44397
4.44362
4.44327
4.44303
4.44267
4.44219
4.44168
4.44117
4.44069
4.44022
4.43977
4.43932
4.43913
4.43895
4.43882
4.43876
4.43877
4.43886
4.43899
4.43918
4.43939
4.43964
4.43989
4.44016
4.44042
4.44058
4.44067
4.44084
4.44102
4.44114
4.44127
4.44141
4.44158
4.44173
4.44186
4.44198
4.44208
4.44215
4.44218
4.4422
4.44224
4.44224
4.29351
4.29351
4.29352
4.29352
4.29354
4.29355
4.29357
4.29356
4.29354
4.2935
4.29344
4.29334
4.29323
4.29308
4.29292
4.29279
4.29265
4.29236
4.29199
4.29157
4.29113
4.2907
4.29037
4.28985
4.28926
4.28865
4.28807
4.28753
4.287
4.28649
4.28625
4.28603
4.28588
4.28582
4.28585
4.28595
4.28612
4.28634
4.28661
4.2869
4.28721
4.28751
4.28773
4.2879
4.28811
4.28835
4.28858
4.28873
4.28888
4.28908
4.28926
4.28943
4.28958
4.28972
4.28982
4.2899
4.28995
4.28997
4.29001
4.29001
4.15163
4.15163
4.15164
4.15165
4.15166
4.15169
4.1517
4.1517
4.15168
4.15165
4.15159
4.15149
4.15137
4.15123
4.15105
4.15089
4.15072
4.15041
4.14999
4.14951
4.149
4.14845
4.14806
4.14746
4.14677
4.14607
4.14538
4.14473
4.14412
4.14354
4.14324
4.14299
4.14282
4.14276
4.1428
4.14293
4.14315
4.14341
4.14373
4.14408
4.14444
4.14475
4.14493
4.14521
4.14551
4.14582
4.14607
4.14626
4.14647
4.14669
4.1469
4.14708
4.14724
4.1474
4.14752
4.1476
4.14766
4.1477
4.14773
4.14774
4.01877
4.01878
4.01878
4.0188
4.01882
4.01884
4.01887
4.01887
4.01886
4.01883
4.01878
4.01869
4.01857
4.01841
4.01823
4.01805
4.01785
4.0175
4.01705
4.01651
4.01592
4.0153
4.01477
4.0141
4.0133
4.01247
4.01167
4.01091
4.0102
4.00953
4.00917
4.00887
4.00869
4.00863
4.0087
4.00887
4.00913
4.00946
4.00983
4.01023
4.01064
4.01099
4.01123
4.01158
4.01195
4.01228
4.01255
4.01279
4.01306
4.01332
4.01355
4.01376
4.01394
4.01411
4.01423
4.01433
4.01439
4.01444
4.01447
4.01449
3.89411
3.89412
3.89413
3.89415
3.89417
3.89421
3.89424
3.89425
3.89425
3.89423
3.89419
3.8941
3.89399
3.89383
3.89364
3.89343
3.89319
3.89284
3.89235
3.89176
3.89107
3.89035
3.88959
3.8889
3.88802
3.88707
3.88613
3.88524
3.88441
3.88365
3.88321
3.88287
3.88267
3.88262
3.88272
3.88294
3.88325
3.88364
3.88406
3.88449
3.88493
3.88531
3.88571
3.88615
3.88658
3.88695
3.88725
3.88755
3.88786
3.88815
3.8884
3.88863
3.88883
3.889
3.88915
3.88925
3.88932
3.88937
3.88942
3.88943
3.77692
3.77693
3.77695
3.77698
3.777
3.77705
3.77709
3.77711
3.77713
3.77712
3.77709
3.77701
3.77691
3.77675
3.77655
3.77629
3.77602
3.77567
3.77517
3.77453
3.77378
3.77294
3.77204
3.77126
3.77024
3.76913
3.76804
3.76699
3.76602
3.76515
3.76463
3.76424
3.76403
3.764
3.76413
3.76441
3.76479
3.76523
3.76571
3.76622
3.76666
3.76716
3.76768
3.7682
3.76867
3.76906
3.76942
3.76979
3.77014
3.77045
3.77073
3.77098
3.7712
3.77138
3.77153
3.77165
3.77173
3.77178
3.77183
3.77185
3.66656
3.66657
3.6666
3.66663
3.66667
3.66672
3.66677
3.66681
3.66684
3.66685
3.66683
3.66678
3.66668
3.66654
3.66634
3.66607
3.66578
3.66543
3.66489
3.66419
3.66338
3.66245
3.66143
3.66048
3.65932
3.65805
3.65676
3.65554
3.65441
3.65341
3.65278
3.65234
3.65211
3.6521
3.65229
3.65264
3.65308
3.65359
3.65417
3.65478
3.65531
3.65591
3.65652
3.6571
3.65761
3.65804
3.65845
3.65887
3.65926
3.6596
3.6599
3.66016
3.6604
3.6606
3.66075
3.66088
3.66097
3.66103
3.66108
3.6611
3.56245
3.56247
3.5625
3.56254
3.56258
3.56265
3.56272
3.56278
3.56282
3.56285
3.56286
3.56282
3.56275
3.56263
3.56244
3.56218
3.56187
3.56149
3.56094
3.56021
3.55933
3.5583
3.55717
3.55598
3.5548
3.55331
3.55181
3.55038
3.54905
3.54788
3.54714
3.54665
3.5464
3.54643
3.54668
3.54712
3.54755
3.54816
3.54879
3.5495
3.55021
3.55093
3.55162
3.55223
3.55277
3.55328
3.55377
3.55423
3.55465
3.55501
3.55534
3.55562
3.55586
3.55608
3.55625
3.55638
3.55647
3.55654
3.55659
3.55661
3.46409
3.46411
3.46414
3.46419
3.46425
3.46433
3.46441
3.46449
3.46456
3.46462
3.46465
3.46463
3.46459
3.46449
3.46433
3.46407
3.46374
3.46333
3.4628
3.46207
3.46114
3.46003
3.4588
3.45817
3.50398
3.50244
3.5008
3.49921
3.49775
3.49646
3.49564
3.49509
3.49484
3.49488
3.49518
3.49567
3.44791
3.44844
3.44922
3.45006
3.4509
3.45172
3.45247
3.45312
3.45372
3.45431
3.45486
3.45536
3.4558
3.45619
3.45654
3.45684
3.45709
3.45731
3.45749
3.45763
3.45773
3.4578
3.45785
3.45787
3.371
3.37103
3.37107
3.37113
3.3712
3.37129
3.3714
3.3715
3.37159
3.37168
3.37174
3.37176
3.37175
3.37169
3.37156
3.37133
3.371
3.37058
3.37004
3.36934
3.36839
3.36724
3.36663
3.41028
3.40678
3.40518
3.40325
3.40134
3.39956
3.39799
3.39696
3.3963
3.396
3.39608
3.39647
3.397
3.39928
3.35424
3.35502
3.35599
3.35694
3.35784
3.35865
3.35936
3.36003
3.36068
3.36127
3.3618
3.36227
3.36268
3.36304
3.36335
3.36362
3.36385
3.36403
3.36418
3.36429
3.36436
3.36441
3.36444
3.28279
3.28281
3.28286
3.28293
3.28302
3.28313
3.28326
3.28338
3.28351
3.28362
3.28373
3.28379
3.28382
3.28381
3.28372
3.28354
3.28325
3.28285
3.28233
3.28165
3.28071
3.27957
3.27949
3.31873
3.31527
3.33571
3.33357
3.33136
3.32929
3.32745
3.32625
3.32546
3.32513
3.32523
3.32569
3.30372
3.30593
3.26496
3.26576
3.26685
3.2679
3.26886
3.26972
3.27051
3.27127
3.27197
3.2726
3.27315
3.27365
3.27408
3.27445
3.27477
3.27505
3.27528
3.27548
3.27563
3.27573
3.27581
3.27587
3.27589
3.19907
3.1991
3.19916
3.19924
3.19934
3.19947
3.19962
3.19977
3.19993
3.20009
3.20023
3.20034
3.20043
3.20047
3.20044
3.20032
3.2001
3.19975
3.19925
3.19861
3.19774
3.19672
3.19719
3.23238
3.22904
3.24737
3.24498
3.2423
3.23976
3.23757
3.23602
3.23501
3.23459
3.23468
3.23509
3.21548
3.21735
3.18036
3.18111
3.18228
3.18341
3.18442
3.18537
3.18625
3.18707
3.18781
3.18847
3.18905
3.18956
3.19
3.19039
3.19072
3.191
3.19124
3.19144
3.19159
3.1917
3.19178
3.19184
3.19186
3.11952
3.11955
3.11962
3.11971
3.11983
3.11998
3.12016
3.12034
3.12053
3.12073
3.12092
3.12109
3.12123
3.12134
3.12139
3.12135
3.12122
3.12096
3.12054
3.11996
3.11921
3.11842
3.1195
3.1511
3.14792
3.16432
3.1617
3.15859
3.15564
3.15306
3.15116
3.14983
3.14915
3.14904
3.14937
3.13169
3.1334
3.1001
3.10072
3.10196
3.10315
3.10426
3.10529
3.10625
3.10711
3.10788
3.10856
3.10916
3.10968
3.11014
3.11053
3.11087
3.11115
3.1114
3.1116
3.11175
3.11186
3.11194
3.112
3.11202
3.04382
3.04386
3.04393
3.04404
3.04418
3.04435
3.04455
3.04477
3.045
3.04524
3.04548
3.04571
3.04593
3.04611
3.04625
3.04632
3.0463
3.04618
3.04591
3.04548
3.04489
3.04446
3.04623
3.07471
3.07206
3.08688
3.08399
3.08116
3.0784
3.07576
3.0733
3.07109
3.06948
3.06858
3.06847
3.05233
3.0539
3.02386
3.02431
3.02559
3.02689
3.02809
3.0292
3.0302
3.03109
3.03188
3.03258
3.03319
3.03372
3.03418
3.03458
3.03491
3.0352
3.03544
3.03564
3.0358
3.03591
3.03599
3.03605
3.03607
2.97171
2.97176
2.97183
2.97196
2.97211
2.97231
2.97253
2.97279
2.97306
2.97335
2.97365
2.97394
2.97423
2.97451
2.97475
2.97494
2.97507
2.97511
2.97505
2.97487
2.97458
2.9747
2.97724
3.00311
3.00177
3.01514
3.01346
3.01309
3.01377
3.01329
3.00953
3.00346
2.99787
2.99446
2.99282
2.97716
2.97867
2.95142
2.95172
2.95304
2.95441
2.95567
2.95681
2.95783
2.95874
2.95954
2.96025
2.96086
2.96139
2.96186
2.96225
2.96259
2.96287
2.96312
2.96331
2.96346
2.96357
2.96365
2.96371
2.96374
2.90293
2.90298
2.90307
2.9032
2.90338
2.9036
2.90385
2.90414
2.90445
2.90479
2.90515
2.90551
2.90589
2.90626
2.90662
2.90696
2.90726
2.90751
2.90771
2.90789
2.90805
2.90898
2.91241
2.93623
2.93746
2.95017
2.95333
2.96484
2.98665
3.00472
2.99458
2.96537
2.94173
2.9292
2.92356
2.90659
2.90758
2.88258
2.88273
2.88408
2.88545
2.88673
2.88787
2.8889
2.88982
2.89062
2.89132
2.89193
2.89246
2.89292
2.89331
2.89364
2.89392
2.89416
2.89435
2.8945
2.89461
2.89469
2.89474
2.89477
2.83725
2.83731
2.83741
2.83756
2.83775
2.83799
2.83828
2.83859
2.83895
2.83934
2.83976
2.8402
2.84066
2.84114
2.84163
2.84212
2.84261
2.84311
2.84364
2.84425
2.84503
2.84706
2.85164
2.87416
2.87925
2.89333
2.91212
2.97286
3.14446
3.36879
3.28555
3.04848
2.92299
2.87806
2.86231
2.84138
2.84048
2.81727
2.81713
2.81845
2.81977
2.82104
2.82217
2.82319
2.82409
2.82488
2.82557
2.82617
2.82669
2.82714
2.82752
2.82784
2.82811
2.82835
2.82853
2.82868
2.82878
2.82886
2.82891
2.82894
2.77447
2.77454
2.77464
2.7748
2.77501
2.77528
2.77559
2.77594
2.77634
2.77678
2.77726
2.77777
2.77832
2.77891
2.77953
2.78019
2.7809
2.78168
2.78256
2.7837
2.78522
2.78857
2.79444
2.81676
2.82715
2.84644
2.90497
3.16901
4.35271
9.04039
7.3083
3.90916
3.01072
2.84847
2.80931
2.7828
2.77738
2.75523
2.75464
2.7559
2.75716
2.75838
2.75948
2.76047
2.76135
2.76211
2.76279
2.76337
2.76387
2.7643
2.76467
2.76498
2.76525
2.76547
2.76565
2.76579
2.76589
2.76596
2.76601
2.76604
2.7144
2.71447
2.71458
2.71475
2.71498
2.71527
2.71561
2.71599
2.71643
2.71692
2.71746
2.71804
2.71868
2.71938
2.72013
2.72096
2.72189
2.72296
2.72424
2.72594
2.72828
2.73304
2.74014
2.76333
2.7799
2.80954
2.93935
3.7281
13.2298
12.4226
3.32403
2.84171
2.76231
2.73031
2.71776
2.69627
2.69506
2.69622
2.69738
2.69854
2.69959
2.70053
2.70137
2.70211
2.70275
2.70331
2.70379
2.70421
2.70456
2.70486
2.70511
2.70533
2.7055
2.70563
2.70573
2.7058
2.70586
2.70589
2.65686
2.65693
2.65705
2.65724
2.65748
2.65778
2.65815
2.65857
2.65904
2.65958
2.66017
2.66082
2.66155
2.66235
2.66323
2.66423
2.66538
2.66673
2.6684
2.67068
2.67383
2.67991
2.68797
2.71283
2.73594
2.77741
2.98836
4.33356
216.302
716.804
449.835
3.84765
2.84147
2.71519
2.68169
2.66132
2.64029
2.63827
2.6393
2.64034
2.64141
2.64238
2.64327
2.64405
2.64475
2.64535
2.64588
2.64633
2.64672
2.64706
2.64734
2.64757
2.64777
2.64794
2.64806
2.64816
2.64822
2.64827
2.64831
2.60169
2.60177
2.60189
2.60209
2.60234
2.60267
2.60305
2.6035
2.60401
2.60459
2.60524
2.60595
2.60675
2.60765
2.60866
2.60981
2.61115
2.61277
2.61481
2.6176
2.62153
2.62869
2.63748
2.66419
2.69414
2.74249
3.02573
4.55155
454.375
302.516
295.87
233.857
4.29966
2.82794
2.66482
2.6345
2.60775
2.58711
2.58411
2.58491
2.58582
2.58679
2.58767
2.58848
2.58921
2.58984
2.5904
2.59089
2.59131
2.59167
2.59198
2.59224
2.59246
2.59264
2.59279
2.59291
2.59299
2.59306
2.5931
2.59313
2.54874
2.54882
2.54896
2.54916
2.54943
2.54977
2.55017
2.55065
2.55119
2.55181
2.5525
2.55327
2.55414
2.55512
2.55623
2.55752
2.55904
2.56087
2.56322
2.56642
2.57104
2.57897
2.58845
2.61663
2.65383
2.70352
3.04521
4.43918
212.16
398.128
278.29
127.645
5.09855
2.84119
2.6189
2.58963
2.55719
2.53668
2.5324
2.5329
2.53366
2.53451
2.53529
2.53601
2.53666
2.53723
2.53774
2.53818
2.53857
2.5389
2.53917
2.53941
2.53961
2.53978
2.53991
2.54002
2.5401
2.54015
2.54019
2.54022
2.49788
2.49797
2.49811
2.49832
2.49859
2.49895
2.49937
2.49987
2.50044
2.50109
2.50182
2.50264
2.50356
2.50461
2.50581
2.50719
2.50883
2.51081
2.51339
2.51692
2.52217
2.53057
2.54089
2.56993
2.61455
2.66787
3.03675
4.16811
74.0719
318.294
317.151
244.608
28.0971
3.05303
2.58856
2.55077
2.5101
2.48901
2.48303
2.48308
2.48369
2.48441
2.48507
2.48569
2.48626
2.48677
2.48723
2.48762
2.48796
2.48825
2.4885
2.48871
2.48889
2.48904
2.48916
2.48926
2.48933
2.48937
2.48941
2.48944
2.44898
2.44908
2.44922
2.44944
2.44973
2.45009
2.45053
2.45104
2.45164
2.45231
2.45307
2.45393
2.45489
2.45599
2.45723
2.45866
2.46037
2.46251
2.46529
2.46903
2.47473
2.48333
2.49472
2.52432
2.57477
2.64316
2.99261
3.90655
26.559
174.594
269.684
261.786
96.2214
4.4548
2.57551
2.51783
2.46658
2.44403
2.43589
2.43531
2.43574
2.43632
2.43686
2.4374
2.43789
2.43833
2.43872
2.43906
2.43936
2.43962
2.43984
2.44002
2.44018
2.44031
2.44042
2.4405
2.44056
2.4406
2.44063
2.44066
2.40194
2.40204
2.40219
2.40241
2.4027
2.40307
2.40353
2.40405
2.40466
2.40535
2.40614
2.40702
2.408
2.40909
2.41036
2.41187
2.41369
2.41592
2.41881
2.42265
2.42855
2.43719
2.44985
2.48018
2.53296
2.62429
2.92611
3.71325
12.2748
80.4486
157.944
235.682
126.668
6.79752
2.56844
2.48597
2.42595
2.40124
2.39077
2.38941
2.38963
2.39006
2.39051
2.39098
2.3914
2.39178
2.39211
2.3924
2.39266
2.39288
2.39306
2.39322
2.39335
2.39347
2.39356
2.39363
2.39367
2.39371
2.39374
2.39376
2.35664
2.35674
2.35689
2.35712
2.35742
2.3578
2.35826
2.35879
2.35941
2.36012
2.36091
2.36179
2.36277
2.36389
2.36522
2.36678
2.36864
2.3709
2.37383
2.37766
2.38356
2.39211
2.40608
2.43753
2.48881
2.59784
2.86891
3.62629
8.05765
34.5135
99.1662
206.08
123.564
7.59049
2.55551
2.45008
2.38673
2.36034
2.34752
2.34527
2.34532
2.34564
2.34595
2.34631
2.34667
2.34699
2.34727
2.34752
2.34773
2.34791
2.34807
2.3482
2.34831
2.3484
2.34848
2.34853
2.34857
2.3486
2.34862
2.34865
2.31299
2.31309
2.31324
2.31347
2.31377
2.31416
2.31462
2.31516
2.31579
2.31649
2.31726
2.31813
2.31915
2.32032
2.32166
2.32324
2.3251
2.32736
2.33026
2.33403
2.33975
2.34812
2.36335
2.39576
2.44279
2.55472
2.85383
4.10167
7.41961
32.9435
136.358
184.654
95.9575
7.34983
2.53186
2.40999
2.34804
2.32073
2.30591
2.30286
2.30264
2.30285
2.30308
2.30332
2.30358
2.30384
2.30409
2.3043
2.30447
2.30462
2.30475
2.30485
2.30494
2.30501
2.30507
2.30512
2.30515
2.30517
2.30518
2.30521
2.27089
2.271
2.27115
2.27138
2.27168
2.27207
2.27253
2.27308
2.27369
2.27437
2.27515
2.27605
2.27708
2.27825
2.2796
2.28116
2.28301
2.28523
2.28806
2.29171
2.29716
2.30536
2.32144
2.35426
2.396
2.50288
2.88024
5.26879
17.1672
72.967
152.659
165.856
78.6032
6.7159
2.50468
2.36938
2.30967
2.28204
2.26568
2.26198
2.26156
2.26158
2.26174
2.26192
2.26209
2.26228
2.26247
2.26265
2.2628
2.26291
2.26301
2.26309
2.26316
2.26321
2.26326
2.26329
2.26331
2.26332
2.26333
2.26336
2.23026
2.23038
2.23053
2.23076
2.23106
2.23144
2.2319
2.23243
2.23303
2.23372
2.23451
2.23542
2.23644
2.23761
2.23894
2.24048
2.24229
2.24445
2.24719
2.25069
2.25589
2.26386
2.28034
2.3128
2.34955
2.45967
2.9181
6.81996
39.0347
110.677
148.971
143.861
63.0742
6.01815
2.47197
2.33241
2.2717
2.24412
2.22668
2.22248
2.22192
2.22182
2.22183
2.22195
2.22208
2.2222
2.22234
2.22248
2.22261
2.2227
2.22277
2.22283
2.22287
2.22291
2.22294
2.22296
2.22297
2.22298
2.22299
2.22301
2.19104
2.19115
2.1913
2.19153
2.19183
2.1922
2.19264
2.19316
2.19376
2.19446
2.19526
2.19615
2.19717
2.19832
2.19963
2.20113
2.20289
2.20499
2.20761
2.21099
2.21592
2.22363
2.24018
2.27158
2.30437
2.43239
2.92071
8.13919
54.0165
121.283
140.924
117.761
50.5783
5.44057
2.43215
2.30046
2.23439
2.20691
2.18884
2.18428
2.18362
2.18344
2.18336
2.18337
2.18341
2.18349
2.18361
2.18372
2.18381
2.18389
2.18394
2.18398
2.18401
2.18403
2.18404
2.18405
2.18406
2.18406
2.18406
2.18409
2.15313
2.15325
2.15339
2.15362
2.15391
2.15427
2.1547
2.15522
2.15583
2.15653
2.15731
2.15819
2.15919
2.16032
2.16159
2.16306
2.16476
2.16677
2.16926
2.17256
2.17723
2.18467
2.20102
2.23099
2.26093
2.41331
2.87546
8.15128
57.4645
119.195
130.378
97.5729
41.8063
5.04891
2.38707
2.27216
2.19787
2.17044
2.15212
2.14731
2.14656
2.14634
2.1462
2.14614
2.14614
2.14615
2.1462
2.14628
2.14635
2.1464
2.14645
2.14647
2.14648
2.14649
2.14649
2.14649
2.14648
2.14648
2.14648
2.14651
2.11648
2.1166
2.11674
2.11696
2.11724
2.11759
2.11803
2.11855
2.11915
2.11983
2.1206
2.12147
2.12244
2.12354
2.12478
2.12621
2.12782
2.12974
2.13214
2.13535
2.13976
2.14694
2.16294
2.19132
2.21932
2.38931
2.81528
7.63536
53.4093
111.469
118.881
86.639
37.1484
4.8486
2.34149
2.2444
2.16208
2.13477
2.11648
2.11153
2.11071
2.11044
2.11026
2.11016
2.11012
2.1101
2.11009
2.11011
2.11016
2.11019
2.11021
2.11023
2.11023
2.11023
2.11022
2.1102
2.11019
2.11018
2.11018
2.1102
2.08102
2.08114
2.08128
2.08149
2.08176
2.08212
2.08255
2.08306
2.08365
2.08432
2.08507
2.08592
2.08687
2.08794
2.08914
2.09051
2.09204
2.0939
2.09622
2.09931
2.10349
2.1104
2.1259
2.15273
2.17949
2.35384
2.75352
7.02347
47.4167
101.9
110.943
80.8628
35.6189
4.89294
2.29947
2.21426
2.12701
2.09997
2.08191
2.07687
2.076
2.07571
2.07549
2.07535
2.07527
2.07522
2.07519
2.07516
2.07515
2.07518
2.07518
2.07518
2.07518
2.07517
2.07515
2.07513
2.07511
2.0751
2.07509
2.07511
2.0467
2.04682
2.04695
2.04715
2.04742
2.04778
2.0482
2.0487
2.04927
2.04993
2.05067
2.05149
2.05241
2.05345
2.05462
2.05592
2.0574
2.0592
2.06141
2.06438
2.06836
2.075
2.08991
2.11526
2.14135
2.30975
2.69485
6.45363
41.2444
91.5554
102.845
78.093
35.4973
5.17693
2.26248
2.18073
2.0927
2.06609
2.04837
2.0433
2.04238
2.04207
2.04183
2.04166
2.04155
2.04147
2.04142
2.04137
2.04133
2.0413
2.0413
2.04129
2.04127
2.04126
2.04124
2.04121
2.04118
2.04116
2.04115
2.04118
2.01346
2.01357
2.0137
2.0139
2.01417
2.01452
2.01493
2.01542
2.01598
2.01662
2.01733
2.01813
2.01903
2.02004
2.02115
2.02239
2.02383
2.02557
2.02768
2.03054
2.03432
2.0407
2.05495
2.07897
2.10481
2.26151
2.63801
5.95977
35.4218
78.4797
92.8395
74.6743
35.2247
5.4533
2.22846
2.14489
2.05918
2.03317
2.01583
2.01076
2.00981
2.00949
2.00922
2.00903
2.0089
2.0088
2.00872
2.00866
2.0086
2.00854
2.0085
2.00849
2.00846
2.00844
2.00841
2.00839
2.00835
2.00833
2.00832
2.00834
1.98125
1.98136
1.98149
1.98169
1.98195
1.98229
1.98269
1.98317
1.98371
1.98433
1.98503
1.98581
1.98667
1.98764
1.98871
1.9899
1.99129
1.99297
1.99498
1.99772
2.00133
2.00745
2.02105
2.04388
2.06973
2.21605
2.58164
5.5472
30.4507
68.0163
82.6925
69.076
33.9765
5.56851
2.19416
2.10878
2.02643
2.00125
1.98424
1.9792
1.97823
1.97791
1.97762
1.97741
1.97727
1.97715
1.97705
1.97697
1.9769
1.97683
1.97676
1.97671
1.97669
1.97666
1.97663
1.9766
1.97657
1.97654
1.97652
1.97654
1.95002
1.95013
1.95026
1.95045
1.95071
1.95104
1.95143
1.95189
1.95242
1.95302
1.9537
1.95445
1.95529
1.95621
1.95723
1.9584
1.95974
1.96135
1.96327
1.96591
1.96936
1.97522
1.98822
2.01002
2.03595
2.17619
2.52609
5.20849
26.6595
60.8926
72.1394
60.551
31.7419
5.51884
2.16008
2.07443
1.99445
1.97032
1.95358
1.94859
1.94761
1.94728
1.94699
1.94677
1.94661
1.94648
1.94636
1.94627
1.94618
1.9461
1.94602
1.94595
1.9459
1.94587
1.94584
1.94581
1.94577
1.94574
1.94572
1.94574
1.91973
1.91985
1.91997
1.92016
1.92041
1.92073
1.92111
1.92156
1.92207
1.92265
1.92331
1.92403
1.92484
1.92571
1.9267
1.92785
1.92913
1.93068
1.93252
1.93504
1.93835
1.94397
1.95644
1.97738
2.00332
2.14316
2.472
4.91923
23.6836
53.9891
59.718
50.7646
29.1896
5.41063
2.12696
2.04348
1.96325
1.94038
1.9238
1.91888
1.9179
1.91758
1.91727
1.91705
1.91688
1.91673
1.91661
1.9165
1.9164
1.91631
1.91622
1.91615
1.91608
1.91602
1.91599
1.91596
1.91592
1.91589
1.91587
1.91589
1.89034
1.89046
1.89058
1.89076
1.891
1.89131
1.89168
1.89212
1.89261
1.89318
1.89381
1.89451
1.89528
1.89612
1.89709
1.89819
1.89942
1.90091
1.90267
1.9051
1.90827
1.91366
1.92567
1.9459
1.97161
2.11799
2.41885
4.64839
20.9174
47.2867
48.421
41.9547
26.9578
5.32045
2.09549
2.01717
1.93287
1.91138
1.89489
1.89003
1.88907
1.88875
1.88844
1.88821
1.88803
1.88788
1.88775
1.88763
1.88752
1.88742
1.88732
1.88724
1.88716
1.88709
1.88704
1.88701
1.88697
1.88694
1.88692
1.88695
1.86181
1.86193
1.86204
1.86222
1.86245
1.86275
1.86311
1.86353
1.86401
1.86456
1.86517
1.86584
1.86657
1.8674
1.86833
1.86939
1.87057
1.87201
1.8737
1.87603
1.87909
1.88426
1.89585
1.91544
1.94083
2.10088
2.36605
4.3816
18.1855
41.5332
40.0442
35.0132
25.1735
5.30558
2.0674
1.99617
1.90335
1.88327
1.86683
1.86203
1.86109
1.86076
1.86046
1.86023
1.86004
1.85988
1.85974
1.85961
1.85949
1.85939
1.85928
1.85919
1.85911
1.85903
1.85897
1.85892
1.85889
1.85886
1.85884
1.85886
1.8341
1.83422
1.83433
1.8345
1.83473
1.83502
1.83536
1.83577
1.83623
1.83676
1.83735
1.83799
1.8387
1.8395
1.8404
1.84142
1.84256
1.84394
1.84557
1.84781
1.85076
1.85573
1.86693
1.88587
1.91101
2.11739
2.4168
4.74989
17.2445
33.5589
32.8242
31.4808
20.2401
4.46006
2.01284
1.97634
1.87482
1.85598
1.83958
1.83483
1.83391
1.83359
1.83329
1.83305
1.83286
1.8327
1.83255
1.83242
1.83229
1.83217
1.83206
1.83196
1.83187
1.8318
1.83173
1.83167
1.83162
1.8316
1.83158
1.83161
1.80718
1.80729
1.8074
1.80757
1.80779
1.80807
1.8084
1.80879
1.80924
1.80975
1.81031
1.81092
1.81162
1.8124
1.81326
1.81425
1.81534
1.81666
1.81823
1.82039
1.82325
1.82803
1.83883
1.84887
1.88152
2.10152
2.365
4.47213
15.2059
30.316
30.1622
29.1399
19.5643
4.61253
1.99615
1.95599
1.83226
1.82928
1.81313
1.80842
1.80752
1.80719
1.8069
1.80666
1.80647
1.8063
1.80615
1.806
1.80587
1.80575
1.80563
1.80553
1.80543
1.80535
1.80527
1.80521
1.80516
1.80513
1.80512
1.80514
1.78101
1.78112
1.78123
1.78139
1.7816
1.78187
1.78219
1.78257
1.78301
1.78349
1.78403
1.78462
1.78529
1.78604
1.78688
1.78783
1.78887
1.79015
1.79167
1.79375
1.79652
1.80112
1.81152
1.82167
1.87318
2.09014
2.57914
5.90762
17.4017
26.3916
27.4856
27.1358
14.7864
3.73467
1.98042
1.87995
1.80644
1.8033
1.78745
1.78276
1.78187
1.78154
1.78125
1.78102
1.78082
1.78065
1.78049
1.78034
1.7802
1.78007
1.77995
1.77984
1.77974
1.77965
1.77958
1.77951
1.77945
1.77942
1.7794
1.77943
1.75557
1.75568
1.75578
1.75593
1.75614
1.7564
1.75671
1.75707
1.75749
1.75796
1.75847
1.75904
1.7597
1.76042
1.76122
1.76213
1.76314
1.76438
1.76584
1.76784
1.77054
1.77497
1.78498
1.79517
1.84829
2.06266
2.52238
5.57931
16.0522
24.7256
26.4658
25.8945
14.4644
3.8905
1.98685
1.85732
1.78151
1.77799
1.76251
1.75784
1.75695
1.75662
1.75633
1.75609
1.7559
1.75572
1.75556
1.7554
1.75526
1.75512
1.75499
1.75488
1.75477
1.75468
1.7546
1.75453
1.75447
1.75443
1.75441
1.75444
1.73082
1.73093
1.73102
1.73117
1.73137
1.73162
1.73192
1.73227
1.73267
1.73312
1.73361
1.73417
1.7348
1.73549
1.73626
1.73714
1.73811
1.7393
1.74071
1.74264
1.74526
1.74954
1.75917
1.76936
1.82404
2.03576
2.46781
5.28819
14.9257
23.2899
25.5924
24.8205
14.1964
4.0315
1.9961
1.83619
1.75741
1.75334
1.73828
1.73361
1.73273
1.73238
1.7321
1.73186
1.73166
1.73148
1.73131
1.73115
1.731
1.73086
1.73073
1.73061
1.7305
1.7304
1.73032
1.73024
1.73018
1.73014
1.73011
1.73015
1.70673
1.70684
1.70694
1.70708
1.70727
1.70751
1.7078
1.70814
1.70852
1.70894
1.70942
1.70996
1.71056
1.71123
1.71197
1.71282
1.71375
1.7149
1.71626
1.71811
1.72065
1.72478
1.73407
1.74425
1.80039
2.0096
2.41573
5.02827
13.969
22.0215
24.8126
23.8536
13.9723
4.15598
2.00682
1.81635
1.73413
1.72935
1.71472
1.71006
1.70917
1.70882
1.70854
1.70829
1.70809
1.7079
1.70773
1.70756
1.70741
1.70726
1.70712
1.707
1.70688
1.70678
1.7067
1.70662
1.70656
1.70651
1.70648
1.70651
1.68329
1.6834
1.68349
1.68363
1.68381
1.68404
1.68432
1.68464
1.68501
1.68541
1.68588
1.6864
1.68698
1.68762
1.68833
1.68914
1.69004
1.69114
1.69246
1.69423
1.69669
1.70067
1.70965
1.71982
1.77724
1.98424
2.36638
4.79524
13.146
20.8799
24.0891
22.9505
13.7839
4.26389
2.01785
1.79753
1.71164
1.70599
1.69181
1.68715
1.68625
1.68589
1.68562
1.68536
1.68516
1.68496
1.68478
1.68461
1.68445
1.6843
1.68416
1.68403
1.68391
1.6838
1.68371
1.68363
1.68357
1.68352
1.68349
1.68351
1.66047
1.66057
1.66066