/*--------------------------------*- C++ -*----------------------------------*\
  =========                 |
  \\      /  F ield         | OpenFOAM: The Open Source CFD Toolbox
   \\    /   O peration     | Website:  https://openfoam.org
    \\  /    A nd           | Version:  12
     \\/     M anipulation  |
\*---------------------------------------------------------------------------*/
FoamFile
{
    format      ascii;
    class       volScalarField;
    location    "140";
    object      p;
}
// * * * * * * * * * * * * * * * * * * * * * * * * * * * * * * * * * * * * * //

dimensions      [0 2 -2 0 0 0 0];

internalField   nonuniform List<scalar> 
16227
(
0.0218876
0.022043
0.0223533
0.0228179
0.023436
0.0242066
0.0251281
0.0261985
0.027415
0.0287742
0.030272
0.0319032
0.0336616
0.0355406
0.0375319
0.0396261
0.0418125
0.0440793
0.0464132
0.0487998
0.0512237
0.0536686
0.0561174
0.0585526
0.0609568
0.0633125
0.0656029
0.0678123
0.0699259
0.0719308
0.073816
0.0755724
0.0771932
0.078674
0.0800126
0.0812092
0.082266
0.0831871
0.0839782
0.0846466
0.0852005
0.0856492
0.0860023
0.0862701
0.0864626
0.08659
0.0866622
0.0866886
0.0866782
0.0866392
0.0865795
0.0865061
0.0864252
0.0863424
0.0862625
0.0861897
0.0861274
0.0860784
0.0860446
0.0860273
0.0217726
0.0219282
0.0222387
0.022704
0.023323
0.0240948
0.0250178
0.0260902
0.0273091
0.0286712
0.0301725
0.0318082
0.033572
0.035457
0.0374553
0.0395573
0.0417526
0.0440291
0.0463736
0.0487716
0.0512076
0.0536651
0.0561268
0.058575
0.060992
0.0633602
0.0656623
0.0678825
0.0700058
0.0720193
0.0739113
0.0756728
0.0772969
0.0787793
0.0801179
0.0813129
0.0823666
0.0832834
0.0840692
0.0847315
0.0852786
0.0857201
0.0860658
0.086326
0.086511
0.0866312
0.0866964
0.0867162
0.0866996
0.0866549
0.0865901
0.0865119
0.0864269
0.0863405
0.0862576
0.0861823
0.086118
0.0860675
0.0860327
0.086015
0.0215189
0.0216748
0.0219863
0.0224529
0.0230739
0.0238482
0.0247745
0.0258512
0.0270754
0.0284439
0.0299532
0.0315987
0.0333741
0.0352725
0.037286
0.0394054
0.0416201
0.0439181
0.046286
0.0487094
0.0511721
0.0536574
0.0561477
0.0586248
0.0610703
0.063466
0.0657942
0.0680384
0.0701831
0.0722151
0.0741222
0.0758949
0.0775263
0.0790122
0.0803506
0.081542
0.0825891
0.0834964
0.0842704
0.084919
0.0854512
0.0858766
0.0862058
0.0864493
0.0866178
0.0867218
0.0867716
0.0867767
0.0867464
0.0866892
0.0866129
0.0865244
0.0864303
0.0863359
0.0862463
0.0861654
0.0860967
0.0860429
0.0860059
0.0859871
0.0210935
0.0212501
0.021563
0.0220318
0.0226559
0.0234344
0.0243662
0.0254497
0.0266827
0.0280621
0.0295844
0.0312462
0.0330408
0.0349614
0.0370004
0.0391488
0.041396
0.0437299
0.046137
0.048603
0.0511112
0.0536437
0.0561825
0.0587084
0.0612023
0.0636448
0.0660173
0.0683022
0.0704833
0.0725465
0.0744789
0.0762705
0.0779143
0.0794061
0.0807441
0.0819293
0.0829647
0.0838558
0.0846097
0.085235
0.0857416
0.0861398
0.086441
0.0866561
0.0867966
0.0868734
0.086897
0.0868774
0.0868241
0.0867456
0.08665
0.0865442
0.0864347
0.0863271
0.0862261
0.0861358
0.0860597
0.0860004
0.0859597
0.0859391
0.0205042
0.0206617
0.0209764
0.0214481
0.0220763
0.0228603
0.0237994
0.0248922
0.026137
0.0275311
0.0290714
0.030755
0.0325758
0.034527
0.0366011
0.0387896
0.0410819
0.0434655
0.0459272
0.0484532
0.051025
0.053624
0.0562309
0.0588257
0.0613878
0.0638964
0.0663315
0.0686739
0.0709062
0.0730132
0.0749811
0.0767989
0.0784597
0.0799593
0.0812962
0.0824718
0.0834903
0.0843579
0.0850828
0.0856749
0.0861449
0.0865046
0.0867659
0.0869411
0.0870422
0.0870806
0.0870676
0.0870136
0.0869281
0.0868202
0.0866977
0.0865679
0.0864372
0.0863111
0.0861945
0.0860914
0.0860051
0.0859381
0.0858925
0.0858693
0.0197608
0.0199193
0.0202361
0.0207112
0.0213442
0.0221348
0.0230825
0.0241865
0.0254456
0.0268577
0.0284199
0.0301301
0.0319834
0.0339728
0.0360912
0.0383301
0.0406793
0.0431259
0.0456576
0.0482602
0.0509136
0.053598
0.0562927
0.0589765
0.0616268
0.064221
0.0667371
0.0691539
0.0714523
0.0736159
0.0756291
0.0774804
0.0791623
0.0806708
0.082005
0.0831672
0.0841624
0.0849984
0.0856847
0.0862328
0.086655
0.0869642
0.087174
0.0872975
0.0873477
0.087337
0.0872772
0.0871792
0.087053
0.0869076
0.0867513
0.0865912
0.0864338
0.0862847
0.0861486
0.0860294
0.0859303
0.0858538
0.0858019
0.0857756
0.0188624
0.019022
0.019341
0.0198197
0.0204579
0.0212557
0.0222131
0.0233296
0.0246049
0.0260377
0.0276253
0.029366
0.0312577
0.0332927
0.035464
0.0377636
0.0401811
0.0427049
0.0453225
0.0480189
0.0507727
0.0535626
0.0563664
0.0591609
0.0619214
0.0646226
0.06724
0.06975
0.0721311
0.0743648
0.0764342
0.0783263
0.0800334
0.0815518
0.082881
0.0840245
0.084989
0.0857839
0.0864207
0.0869127
0.0872742
0.0875201
0.0876652
0.0877243
0.0877115
0.0876403
0.0875231
0.0873713
0.0871954
0.0870046
0.0868073
0.0866107
0.0864212
0.0862445
0.086085
0.0859466
0.0858322
0.0857444
0.085685
0.085655
0.0178041
0.0179648
0.018286
0.0187682
0.0194116
0.0202168
0.0211843
0.0223142
0.0236069
0.0250622
0.0266784
0.0284537
0.0303878
0.0324751
0.0347079
0.0370784
0.0395761
0.0421917
0.0449118
0.0477204
0.0505951
0.0535126
0.0564492
0.059379
0.0622743
0.065107
0.0678489
0.0704734
0.0729559
0.0752756
0.0774133
0.0793544
0.081091
0.0826195
0.0839406
0.0850591
0.0859837
0.0867261
0.0873004
0.0877224
0.0880086
0.0881763
0.0882423
0.088223
0.0881341
0.0879899
0.0878039
0.087588
0.087353
0.0871085
0.0868629
0.0866234
0.0863965
0.0861876
0.0860009
0.08584
0.085708
0.0856071
0.085539
0.0855047
0.0165832
0.0167447
0.0170678
0.0175531
0.0182012
0.0190134
0.0199908
0.0211342
0.0224448
0.0239236
0.0255703
0.0273836
0.0293635
0.0315091
0.0338114
0.0362626
0.0388529
0.0415746
0.0444139
0.0473547
0.0503726
0.0534422
0.0565377
0.0596302
0.0626886
0.0656804
0.0685735
0.071337
0.0739425
0.076366
0.0785855
0.0805846
0.0823549
0.0838932
0.0852015
0.0862868
0.0871602
0.0878365
0.088333
0.0886685
0.0888627
0.0889355
0.0889062
0.0887931
0.0886135
0.0883831
0.0881162
0.0878253
0.0875217
0.087215
0.0869137
0.086625
0.0863554
0.0861097
0.085892
0.0857058
0.0855537
0.085438
0.0853601
0.0853209
0.0151993
0.0153614
0.0156857
0.0161733
0.0168251
0.0176432
0.0186294
0.0197854
0.0211135
0.0226158
0.0242937
0.0261471
0.0281766
0.0303847
0.032763
0.0353032
0.0379983
0.0408411
0.0438173
0.0469111
0.0500961
0.0533447
0.0566283
0.0599146
0.0631678
0.0663506
0.0694255
0.0723562
0.0751094
0.077657
0.0799733
0.0820399
0.0838477
0.0853943
0.0866834
0.0877245
0.0885325
0.089126
0.0895261
0.0897559
0.0898387
0.0897976
0.0896547
0.0894309
0.089145
0.0888142
0.0884536
0.0880765
0.0876944
0.087317
0.0869528
0.0866089
0.0862914
0.0860046
0.0857525
0.085538
0.0853639
0.0852317
0.085143
0.0850985
0.0136529
0.0138151
0.0141397
0.0146283
0.0152824
0.0161045
0.0170975
0.0182642
0.0196081
0.0211326
0.0228409
0.024735
0.0268161
0.0290887
0.0315484
0.0341858
0.0369975
0.0399764
0.0431078
0.0463762
0.0497545
0.0532117
0.0567162
0.0602315
0.0637163
0.067127
0.0704192
0.0735499
0.0764795
0.0791744
0.0816047
0.0837488
0.0855973
0.0871487
0.0884092
0.089392
0.0901165
0.0906064
0.0908879
0.090989
0.0909377
0.0907608
0.0904839
0.0901304
0.0897212
0.0892749
0.0888075
0.0883327
0.0878622
0.0874057
0.0869716
0.0865667
0.0861964
0.0858646
0.0855748
0.0853298
0.0851316
0.0849817
0.0848814
0.084831
0.0119445
0.0121061
0.0124298
0.0129176
0.0135716
0.0143949
0.0153916
0.016566
0.0179225
0.0194664
0.0212027
0.023136
0.0252686
0.0276062
0.030152
0.0328947
0.0358332
0.0389619
0.0422666
0.0457319
0.0493317
0.0530313
0.0567941
0.0605788
0.0643379
0.0680198
0.0715716
0.0749413
0.0780812
0.0809507
0.0835142
0.0857466
0.0876379
0.0891883
0.0904072
0.0913131
0.0919312
0.0922917
0.0924274
0.0923725
0.0921603
0.0918226
0.0913886
0.0908846
0.0903338
0.0897559
0.0891678
0.0885834
0.0880148
0.0874712
0.0869606
0.0864893
0.0860618
0.0856814
0.0853512
0.0850735
0.0848498
0.0846811
0.0845684
0.0845119
0.010074
0.0102343
0.0105555
0.01104
0.0116907
0.0125116
0.0135077
0.0146849
0.0160494
0.017608
0.019368
0.0213367
0.0235192
0.0259218
0.0285534
0.0314068
0.0344815
0.0377734
0.0412697
0.044955
0.0488073
0.0527863
0.0568501
0.0609514
0.0650353
0.0690402
0.0729022
0.076558
0.079949
0.0830256
0.0857446
0.0880769
0.090012
0.0915522
0.092712
0.0935165
0.093999
0.094198
0.0941547
0.0939109
0.0935067
0.0929793
0.0923623
0.091685
0.0909727
0.0902462
0.0895232
0.0888176
0.0881413
0.0875029
0.0869098
0.0863672
0.0858786
0.0854468
0.0850742
0.0847622
0.0845118
0.0843235
0.0841979
0.084135
0.00804194
0.00819982
0.00851642
0.00899462
0.00963795
0.0104514
0.0114413
0.012615
0.0139805
0.015547
0.0173239
0.0193218
0.0215492
0.0240143
0.0267287
0.0296957
0.0329137
0.036381
0.0400873
0.0440187
0.0481558
0.0524546
0.0568675
0.0613406
0.0658092
0.0701997
0.0744337
0.0784332
0.0821251
0.085448
0.088349
0.0907938
0.0927715
0.0942881
0.0953648
0.096036
0.0963454
0.0963428
0.0960799
0.095608
0.0949752
0.0942252
0.0933962
0.0925206
0.0916257
0.0907332
0.089861
0.0890228
0.0882297
0.0874896
0.0868086
0.0861906
0.0856379
0.0851526
0.084736
0.0843887
0.0841109
0.0839025
0.0837638
0.0836945
0.00584958
0.00600377
0.00631321
0.00678121
0.00741219
0.00821204
0.00918842
0.0103504
0.0117081
0.0132728
0.015057
0.0170745
0.0193383
0.0218597
0.0246537
0.027732
0.0310961
0.0347479
0.0386817
0.0428854
0.0473422
0.0520056
0.0568229
0.0617325
0.0666581
0.0715104
0.0761928
0.0806072
0.0846619
0.0882791
0.0913936
0.0939643
0.0959805
0.0974537
0.0984145
0.0989103
0.0989989
0.0987443
0.0982121
0.0974652
0.0965612
0.0955511
0.0944778
0.0933769
0.0922771
0.0912005
0.0901652
0.0891839
0.088266
0.0874182
0.0866451
0.0859486
0.0853299
0.08479
0.0843288
0.0839458
0.0836404
0.083412
0.0832601
0.0831843
0.00349962
0.00364858
0.00394779
0.00440104
0.00501357
0.00579233
0.00674621
0.00788616
0.00922442
0.010775
0.0125535
0.0145774
0.0168644
0.0194311
0.0222964
0.0254798
0.0289887
0.0328304
0.0370059
0.0415067
0.0463195
0.051398
0.0566835
0.0621061
0.067576
0.0729842
0.0782101
0.0831294
0.0876244
0.0915958
0.0949613
0.0976719
0.0997178
0.101119
0.101919
0.102184
0.10199
0.10142
0.100557
0.0994795
0.0982548
0.096942
0.0955891
0.0942338
0.0929061
0.0916282
0.0904169
0.0892829
0.0882336
0.0872739
0.0864056
0.0856291
0.084944
0.0843494
0.0838439
0.0834257
0.0830933
0.0828452
0.0826806
0.0825985
0.000996516
0.00113847
0.0014239
0.00185703
0.00244395
0.00319263
0.00411326
0.00521859
0.00652329
0.00804415
0.00980008
0.0118126
0.0141048
0.0166996
0.0196214
0.0228978
0.0265446
0.0305765
0.0350035
0.039823
0.0450267
0.0505753
0.0564035
0.0624303
0.0685507
0.074632
0.0805219
0.0860603
0.0910946
0.0954949
0.0991571
0.102021
0.104081
0.105368
0.105946
0.105906
0.105349
0.104385
0.103117
0.101642
0.100039
0.0983757
0.096705
0.0950657
0.0934879
0.0919923
0.0905932
0.0892989
0.0881136
0.0870395
0.0860752
0.0852191
0.0844685
0.0838206
0.0832723
0.0828204
0.0824622
0.0821956
0.082019
0.0819309
-0.00165332
-0.0015204
-0.00125283
-0.00084588
-0.000292885
0.000415299
0.00129004
0.00234592
0.00359994
0.0050719
0.00678411
0.00876262
0.0110362
0.0136348
0.0165903
0.0199401
0.0237098
0.0279242
0.0326057
0.0377608
0.0433881
0.0494648
0.0559188
0.0626575
0.0695581
0.07646
0.0831685
0.0894746
0.0951761
0.100101
0.104116
0.107146
0.109192
0.110304
0.110577
0.110133
0.10911
0.10765
0.105885
0.103932
0.101886
0.0998203
0.0977913
0.0958378
0.0939889
0.0922621
0.0906668
0.0892076
0.0878846
0.0866962
0.0856376
0.0847044
0.0838913
0.0831931
0.0826048
0.0821217
0.0817399
0.0814565
0.081269
0.0811755
-0.00444135
-0.00431971
-0.00407451
-0.00370061
-0.00319074
-0.00253497
-0.00172049
-0.000731353
0.000451792
0.00185171
0.00349451
0.00541065
0.00763508
0.0102055
0.0131625
0.0165554
0.0204221
0.0248002
0.0297292
0.0352304
0.0413141
0.0479752
0.0551438
0.0627187
0.0705602
0.0784697
0.0861972
0.0934653
0.100002
0.105576
0.110009
0.113214
0.115201
0.116051
0.115901
0.114921
0.113299
0.111217
0.108843
0.106319
0.103756
0.101231
0.0988029
0.0965077
0.0943708
0.0924025
0.0906064
0.0889813
0.0875227
0.0862236
0.0850754
0.0840704
0.0831999
0.0824563
0.0818323
0.0813218
0.0809197
0.0806218
0.080425
0.080327
-0.00735666
-0.00724877
-0.00703081
-0.00669746
-0.00624097
-0.00565062
-0.0049127
-0.00400985
-0.00292081
-0.00161989
-7.72721e-05
0.00174192
0.00387897
0.00638007
0.00929546
0.0126879
0.0166109
0.0211194
0.0262738
0.0321173
0.0386797
0.0459745
0.0539519
0.0625069
0.071482
0.0806418
0.0896553
0.0981485
0.105747
0.112134
0.11707
0.120451
0.122306
0.122768
0.122033
0.120341
0.11794
0.115072
0.111952
0.108751
0.105589
0.102549
0.0996842
0.0970247
0.0945869
0.0923722
0.090376
0.0885895
0.0870021
0.0856002
0.0843709
0.0833022
0.0823819
0.0815998
0.0809463
0.0804136
0.0799953
0.079686
0.079482
0.0793805
-0.0103858
-0.0102942
-0.0101087
-0.00982385
-0.00943167
-0.00892106
-0.00827743
-0.00748252
-0.00651354
-0.00534248
-0.00393603
-0.00225488
-0.000251808
0.00212826
0.00494574
0.00827727
0.012198
0.0167836
0.0221192
0.0282796
0.035323
0.0432901
0.0521745
0.0618729
0.0722269
0.0829447
0.0935968
0.103667
0.112632
0.120045
0.125585
0.129123
0.130731
0.13062
0.129079
0.126439
0.123035
0.119175
0.115145
0.111145
0.107303
0.103693
0.100361
0.0973238
0.0945813
0.092124
0.089936
0.0879998
0.0862958
0.084804
0.0835061
0.0823851
0.0814255
0.080614
0.079939
0.0793907
0.0789614
0.0786447
0.0784361
0.0783324
-0.0135125
-0.0134399
-0.0132922
-0.0130641
-0.0127478
-0.0123318
-0.0118014
-0.0111378
-0.0103174
-0.00931047
-0.00808105
-0.00658573
-0.00477215
-0.00257662
7.2048e-05
0.00326428
0.0071015
0.0116837
0.0171258
0.0235457
0.031046
0.0397109
0.0495863
0.0605802
0.0725657
0.0852781
0.0980689
0.110221
0.120988
0.12973
0.136
0.139649
0.140823
0.139866
0.137211
0.133295
0.128565
0.123446
0.118315
0.113388
0.108786
0.104564
0.100747
0.0973294
0.0942906
0.0916053
0.0892436
0.0871774
0.0853762
0.083813
0.0824633
0.0813053
0.0803198
0.0794906
0.0788038
0.0782479
0.0778139
0.0774945
0.0772844
0.07718
-0.0167176
-0.0166666
-0.0165622
-0.0163993
-0.0161703
-0.0158642
-0.0154666
-0.0149589
-0.0143174
-0.0135117
-0.0125044
-0.0112492
-0.00968918
-0.0077537
-0.00536038
-0.00240542
0.00123861
0.00570135
0.0111346
0.0177112
0.0255973
0.0349418
0.0458794
0.0583583
0.0722815
0.0875286
0.103096
0.118007
0.131161
0.141625
0.148768
0.152425
0.152877
0.150685
0.146508
0.140946
0.134434
0.127727
0.121296
0.115319
0.109894
0.105038
0.100737
0.0969545
0.093644
0.0907594
0.0882547
0.0860874
0.0842162
0.0826061
0.0812265
0.0800506
0.0790557
0.0782227
0.0775357
0.0769817
0.0765503
0.0762336
0.0760255
0.0759221
-0.0199793
-0.0199525
-0.0198965
-0.0198068
-0.0196764
-0.0194953
-0.0192501
-0.0189232
-0.0184917
-0.0179262
-0.0171891
-0.0162331
-0.0149991
-0.0134108
-0.0113767
-0.00878063
-0.00547299
-0.00128825
0.00397061
0.010539
0.018669
0.0285981
0.0405775
0.0547889
0.0667423
0.0843913
0.102721
0.120775
0.137064
0.150218
0.159263
0.163826
0.164254
0.161323
0.155965
0.149123
0.140369
0.131792
0.123841
0.116706
0.110436
0.104959
0.100206
0.0961011
0.092565
0.0895281
0.086925
0.0846963
0.0827905
0.0811648
0.0797821
0.0786114
0.0776264
0.0768059
0.076132
0.0755904
0.0751699
0.0748618
0.0746596
0.0745593
-0.0232732
-0.0232728
-0.0232699
-0.0232608
-0.0232396
-0.0231976
-0.0231233
-0.0230012
-0.0228106
-0.0225244
-0.0221072
-0.0215131
-0.0206831
-0.0195395
-0.0179847
-0.0158933
-0.0130994
-0.00939996
-0.0045483
0.00175966
0.00988438
0.0201804
0.0330296
0.0459313
0.0658964
0.0866164
0.109534
0.132573
0.153312
0.169563
0.179815
0.183668
0.181909
0.175973
0.16735
0.157046
0.1474
0.135302
0.125555
0.117259
0.110188
0.104148
0.0990169
0.0946656
0.0909776
0.0878564
0.0852134
0.0829743
0.0810783
0.0794745
0.0781205
0.0769815
0.0760286
0.0752386
0.0745925
0.074075
0.0736743
0.0733813
0.0731892
0.073094
-0.0265722
-0.0266002
-0.0266545
-0.0267323
-0.0268292
-0.0269389
-0.0270523
-0.0271569
-0.027236
-0.0272666
-0.0272179
-0.0270484
-0.0267034
-0.0261088
-0.0251665
-0.023747
-0.0216749
-0.0187211
-0.014586
-0.00890109
-0.00116411
0.00918325
0.0226218
0.0388748
0.0611115
0.0821054
0.110771
0.14011
0.166993
0.188068
0.20088
0.2047
0.200855
0.19175
0.17981
0.165508
0.151413
0.137596
0.125882
0.116633
0.108884
0.102409
0.097028
0.092547
0.0888118
0.0856944
0.0830854
0.0808989
0.0790649
0.0775265
0.0762371
0.0751593
0.0742627
0.0735229
0.0729202
0.0724391
0.0720677
0.0717965
0.071619
0.071531
-0.0298475
-0.0299054
-0.0300198
-0.0301893
-0.0304116
-0.0306827
-0.0309973
-0.0313472
-0.0317207
-0.0321013
-0.0324655
-0.03278
-0.0329994
-0.0330589
-0.0328686
-0.0323045
-0.0311914
-0.0292898
-0.0262652
-0.0216927
-0.0149264
-0.00506491
0.00812223
0.0269452
0.0528161
0.080716
0.118233
0.157364
0.193613
0.221227
0.23578
0.236444
0.226215
0.209818
0.191478
0.172803
0.155314
0.137511
0.12426
0.114436
0.106227
0.0995406
0.094104
0.0896575
0.0860098
0.0830047
0.0805189
0.0784577
0.0767448
0.0753196
0.0741337
0.0731488
0.0723339
0.0716646
0.0711216
0.0706896
0.0703569
0.0701144
0.0699559
0.0698774
-0.0330688
-0.0331573
-0.0333337
-0.0335978
-0.0339498
-0.0343889
-0.034914
-0.0355222
-0.0362089
-0.0369656
-0.0377794
-0.0386291
-0.0394839
-0.0402959
-0.0409938
-0.0414726
-0.0415751
-0.0410738
-0.0396292
-0.0367957
-0.0318607
-0.0235088
-0.0117416
0.00929782
0.0384068
0.0725983
0.121875
0.175677
0.227242
0.266151
0.283528
0.278137
0.256871
0.229241
0.202225
0.17692
0.155776
0.134579
0.12029
0.110276
0.101944
0.0953724
0.090143
0.0859377
0.0825367
0.0797698
0.0775079
0.0756518
0.0741234
0.072862
0.0718201
0.0709602
0.0702526
0.0696743
0.0692069
0.0688363
0.0685516
0.0683445
0.0682093
0.0681422
-0.0362049
-0.036324
-0.0365625
-0.0369219
-0.0374047
-0.0380141
-0.0387535
-0.0396265
-0.0406366
-0.0417856
-0.0430736
-0.0444957
-0.0460411
-0.0476871
-0.0493925
-0.0510887
-0.0526604
-0.0539247
-0.0545813
-0.0542278
-0.0522241
-0.0469185
-0.0385563
-0.0161122
0.0143553
0.0551831
0.118778
0.194405
0.272016
0.331765
0.353323
0.334552
0.29257
0.246745
0.208083
0.175708
0.151134
0.127943
0.113429
0.103797
0.0958441
0.08981
0.0851002
0.0813676
0.0783902
0.0759991
0.0740675
0.072499
0.0712195
0.0701725
0.0693142
0.0686105
0.0680349
0.0675667
0.0671901
0.0668925
0.0666644
0.0664988
0.0663908
0.0663372
-0.0392242
-0.0393733
-0.0396725
-0.040125
-0.0407363
-0.041513
-0.0424643
-0.0436003
-0.0449337
-0.0464781
-0.0482488
-0.0502605
-0.0525274
-0.0550596
-0.0578582
-0.0609085
-0.0641651
-0.067534
-0.0708102
-0.0737106
-0.0758434
-0.0754496
-0.0733608
-0.051733
-0.023702
0.0214881
0.100099
0.206191
0.330307
0.433201
0.461369
0.410751
0.328481
0.254729
0.202689
0.164656
0.13925
0.11649
0.103081
0.094746
0.0878641
0.0828557
0.0789983
0.0759821
0.0736118
0.0717349
0.0702379
0.0690363
0.0680666
0.067281
0.0666428
0.0661238
0.0657022
0.0653615
0.0650888
0.0648743
0.0647104
0.0645916
0.0645142
0.0644756
-0.0420961
-0.0422736
-0.0426302
-0.0431711
-0.0439043
-0.0448404
-0.0459937
-0.0473819
-0.0490265
-0.050954
-0.053196
-0.0557889
-0.0587757
-0.0622051
-0.0661293
-0.0706036
-0.0756781
-0.0813922
-0.0877078
-0.0945419
-0.101929
-0.108334
-0.115921
-0.0990211
-0.0804472
-0.0379543
0.0488511
0.188328
0.39524
0.602501
0.642192
0.507157
0.346329
0.236013
0.17539
0.139508
0.118173
0.0995752
0.0890485
0.0831463
0.0781135
0.0746235
0.0719468
0.0698827
0.0682916
0.0670546
0.0660849
0.0653198
0.0647125
0.0642285
0.0638412
0.0635305
0.0632812
0.063082
0.0629241
0.0628007
0.0627069
0.0626392
0.062595
0.0625728
-0.0447915
-0.0449949
-0.045404
-0.0460256
-0.0468701
-0.047952
-0.0492905
-0.05091
-0.0528412
-0.0551226
-0.0578021
-0.0609384
-0.0646039
-0.068888
-0.0738998
-0.0797728
-0.0866682
-0.0947925
-0.104338
-0.115508
-0.128925
-0.143564
-0.163873
-0.156878
-0.157592
-0.131859
-0.0621077
0.0797316
0.397523
0.908283
0.97083
0.583677
0.291869
0.160427
0.114336
0.0972657
0.0873643
0.0778161
0.071893
0.0694431
0.0669409
0.0653804
0.0641597
0.0632424
0.0625683
0.0620698
0.0616992
0.0614237
0.0612188
0.0610663
0.0609524
0.0608671
0.0608032
0.0607553
0.0607196
0.0606929
0.0606734
0.0606594
0.0606503
0.0606454
-0.0472839
-0.0475098
-0.0479647
-0.0486567
-0.0495983
-0.0508072
-0.0523068
-0.0541274
-0.056308
-0.0588973
-0.061958
-0.0655685
-0.0698288
-0.0748664
-0.0808446
-0.0879741
-0.0965273
-0.106884
-0.119501
-0.134912
-0.15444
-0.17765
-0.211956
-0.219647
-0.2483
-0.257982
-0.24921
-0.232834
-0.0951041
1.2461
1.51904
0.35928
0.0424144
-0.0049214
0.0144598
0.0413934
0.050037
0.0533964
0.0530231
0.0545632
0.0549676
0.0555554
0.055951
0.0562975
0.0566227
0.0569207
0.0571915
0.0574368
0.0576571
0.0578529
0.0580249
0.0581744
0.0583026
0.058411
0.058501
0.0585737
0.0586302
0.0586713
0.058698
0.0587108
-0.0495498
-0.0497944
-0.050287
-0.0510367
-0.0520579
-0.0533704
-0.055001
-0.0569845
-0.0593657
-0.0622018
-0.0655663
-0.0695532
-0.0742836
-0.0799154
-0.0866558
-0.0947787
-0.104647
-0.116785
-0.131891
-0.150791
-0.175502
-0.205925
-0.252467
-0.276949
-0.334666
-0.388831
-0.460491
-0.645766
-1.31046
-0.947223
-0.472485
-0.239119
-0.100218
-0.0142614
0.0131982
0.0296457
0.0344604
0.0397604
0.0429935
0.0456846
0.0477009
0.0493252
0.0506612
0.0517652
0.0526847
0.0534562
0.0541053
0.0546516
0.0551106
0.0554952
0.0558154
0.0560798
0.056295
0.0564665
0.0565985
0.0566944
0.0567567
0.056787
-0.0515702
-0.0518289
-0.05235
-0.0531432
-0.0542239
-0.0556133
-0.0573401
-0.0594416
-0.0619663
-0.064976
-0.0685508
-0.0727934
-0.0778371
-0.0838572
-0.091086
-0.0998356
-0.110519
-0.123746
-0.140365
-0.161361
-0.189292
-0.223869
-0.277628
-0.316818
-0.395184
-0.486763
-0.610023
-0.82008
-0.952352
4.6473
-2.98399
-0.942782
-0.400142
-0.172606
-0.0502601
-0.0144376
0.00982663
0.0181763
0.0262624
0.031819
0.0363208
0.0398078
0.0426175
0.0449026
0.0467707
0.0483094
0.0495853
0.0506461
0.0515292
0.0522642
0.0528748
0.0533796
0.0537937
0.0541292
0.0543954
0.0546
0.0547483
0.0548447
0.0548919
-0.0533306
-0.0535985
-0.0541383
-0.0549597
-0.0560784
-0.0575158
-0.0593013
-0.0614726
-0.0640786
-0.0671823
-0.0708644
-0.0752291
-0.0804109
-0.0865863
-0.0939901
-0.102939
-0.113847
-0.127324
-0.144243
-0.165547
-0.194057
-0.228856
-0.282939
-0.331358
-0.417496
-0.532178
-0.694869
-1.00572
-1.62075
1.19466
5.23692
-1.80685
-0.661781
-0.308482
-0.153125
-0.0568452
-0.0287257
-0.0047302
0.00521012
0.0148268
0.022013
0.0279026
0.032611
0.0364337
0.0395471
0.0420941
0.04419
0.0459231
0.0473591
0.0485504
0.0495385
0.0503568
0.0510314
0.0515836
0.05203
0.0523838
0.0526553
0.052852
0.0529799
0.0530427
-0.0548215
-0.0550938
-0.0556422
-0.0564763
-0.0576112
-0.0590675
-0.0608736
-0.0630656
-0.0656903
-0.0688073
-0.0724929
-0.0768444
-0.081987
-0.0880827
-0.0953441
-0.104059
-0.114592
-0.127471
-0.14346
-0.16326
-0.189626
-0.220926
-0.268499
-0.319006
-0.39849
-0.516003
-0.687861
-1.04242
-1.83981
-2.57775
-0.767456
0.856235
0.0789282
-0.0454299
-0.0758083
-0.0481427
-0.0344579
-0.0153275
-0.00472961
0.0055348
0.0137939
0.0206777
0.0263372
0.0309639
0.0347516
0.037864
0.0404307
0.0425545
0.0443133
0.0457713
0.0469799
0.0479798
0.0488034
0.0494771
0.0500214
0.0504525
0.0507832
0.0510229
0.0511787
0.0512552
-0.0560384
-0.0563104
-0.0568579
-0.0576896
-0.0588196
-0.0602668
-0.0620571
-0.0642232
-0.0668071
-0.0698616
-0.0734536
-0.077667
-0.0826079
-0.0884106
-0.0952459
-0.103344
-0.112978
-0.124538
-0.138576
-0.155414
-0.177425
-0.20249
-0.238385
-0.283661
-0.343465
-0.439371
-0.569044
-0.784919
-1.11352
-1.33491
-0.681203
0.224704
0.167853
0.053977
-0.0381383
-0.0500462
-0.0409731
-0.0244027
-0.0126721
-0.00195665
0.00713341
0.0147404
0.0211131
0.0263334
0.0306307
0.0341801
0.0371155
0.0395487
0.041566
0.0432398
0.0446281
0.045777
0.0467237
0.0474982
0.048124
0.0486198
0.0490003
0.0492761
0.0494555
0.0495437
-0.056982
-0.0572492
-0.0577868
-0.0586024
-0.0597081
-0.0611208
-0.0628624
-0.064961
-0.0674516
-0.0703777
-0.073793
-0.0777633
-0.0823691
-0.087708
-0.0938969
-0.101086
-0.109441
-0.119194
-0.130631
-0.143656
-0.15997
-0.177417
-0.199178
-0.23359
-0.266884
-0.326149
-0.400375
-0.505163
-0.612553
-0.727486
-0.294097
-0.641224
-0.167568
-0.0641957
-0.0726457
-0.070818
-0.0525438
-0.033194
-0.0192982
-0.00792516
0.00196866
0.0101207
0.0170031
0.0226175
0.0272607
0.031112
0.0343053
0.0369579
0.0391614
0.040993
0.0425145
0.0437752
0.0448151
0.0456667
0.0463554
0.0469014
0.0473206
0.0476248
0.0478227
0.0479201
-0.0576571
-0.0579157
-0.0584356
-0.0592229
-0.0602879
-0.0616441
-0.0633095
-0.065306
-0.0676607
-0.0704061
-0.0735809
-0.0772301
-0.0814052
-0.0861625
-0.0915633
-0.097678
-0.104559
-0.112296
-0.120886
-0.129895
-0.140135
-0.14997
-0.158021
-0.179057
-0.186428
-0.206529
-0.233057
-0.292483
-0.434377
-0.387145
-0.299529
-0.539263
-0.372188
-0.201919
-0.130688
-0.0973014
-0.0657256
-0.0406319
-0.0243005
-0.0122503
-0.00163395
0.0068655
0.0140499
0.0198613
0.024688
0.0287028
0.0320384
0.0348161
0.0371292
0.0390569
0.0406615
0.0419937
0.0430946
0.0439974
0.0447285
0.0453089
0.045755
0.046079
0.0462899
0.0463938
-0.0580729
-0.0583197
-0.0588154
-0.0595646
-0.0605753
-0.0618577
-0.0634252
-0.0652935
-0.0674812
-0.0700094
-0.072901
-0.0761805
-0.0798699
-0.0839886
-0.0885507
-0.0935539
-0.0989374
-0.104683
-0.110549
-0.115908
-0.120637
-0.124072
-0.121234
-0.129651
-0.116764
-0.102129
-0.0815617
-0.0782653
-0.225251
-0.463359
-0.431606
-0.623249
-0.377051
-0.256902
-0.166801
-0.113991
-0.0743181
-0.0449162
-0.0268029
-0.0145198
-0.00348876
0.00505375
0.0122891
0.0180884
0.0229325
0.0269698
0.0303311
0.0331387
0.0354841
0.0374446
0.0390813
0.0404437
0.0415721
0.0424995
0.043252
0.0438504
0.0443109
0.0446458
0.0448639
0.0449715
-0.0582416
-0.0584742
-0.0589406
-0.0596442
-0.0605906
-0.0617868
-0.0632414
-0.0649641
-0.0669653
-0.069255
-0.0718413
-0.0747309
-0.0779225
-0.0814059
-0.0851505
-0.0890988
-0.0930998
-0.0970782
-0.100615
-0.103099
-0.103559
-0.102563
-0.0927954
-0.0918279
-0.0672311
-0.0285449
0.0464767
0.228164
0.0580994
-0.445304
-0.583048
-0.676425
-0.351191
-0.257661
-0.175678
-0.116475
-0.0753265
-0.0445304
-0.026036
-0.0143423
-0.0034201
0.00475098
0.0117389
0.0172987
0.0219876
0.0259057
0.0291784
0.0319235
0.0342255
0.0361574
0.0377759
0.0391277
0.040251
0.0411766
0.0419296
0.0425295
0.042992
0.0433289
0.0435486
0.043657
-0.0581781
-0.0583947
-0.0588285
-0.0594814
-0.060357
-0.061459
-0.0627919
-0.0643599
-0.0661658
-0.0682099
-0.0704888
-0.0729964
-0.0757131
-0.0786018
-0.0816032
-0.0846266
-0.0874602
-0.0900226
-0.0917778
-0.0923317
-0.0900405
-0.0867563
-0.074029
-0.0678284
-0.0399925
0.00849226
0.108819
0.322975
0.418027
0.313505
-0.180752
-0.483698
-0.321262
-0.245029
-0.169438
-0.107488
-0.0690917
-0.0392499
-0.0217686
-0.0115836
-0.00142356
0.00592126
0.0123629
0.0174552
0.0218171
0.0254782
0.0285544
0.0311508
0.0333389
0.0351845
0.0367377
0.0380407
0.0391277
0.0400266
0.04076
0.0413459
0.0417987
0.042129
0.0423447
0.0424512
-0.0578991
-0.0580986
-0.0584977
-0.0590971
-0.0598984
-0.0609028
-0.0621109
-0.0635222
-0.0651332
-0.0669377
-0.0689254
-0.0710778
-0.0733623
-0.0757249
-0.0780923
-0.080363
-0.0822922
-0.0838367
-0.0843827
-0.0838883
-0.08024
-0.0763902
-0.0635969
-0.0556787
-0.0305541
0.0127938
0.0915898
0.207465
0.494984
-0.465905
-0.624277
-0.257726
-0.320037
-0.236843
-0.153328
-0.0900888
-0.0567321
-0.0298888
-0.014526
-0.00651812
0.00229215
0.00840489
0.0140428
0.01847
0.0223508
0.0256304
0.0284138
0.0307846
0.0327964
0.0345044
0.0359503
0.03717
0.0381928
0.0390422
0.0397379
0.0402955
0.0407277
0.0410435
0.0412502
0.0413523
-0.0574221
-0.0576041
-0.0579678
-0.0585128
-0.0592392
-0.0601458
-0.06123
-0.0624883
-0.0639134
-0.0654951
-0.0672166
-0.0690514
-0.0709604
-0.072882
-0.0747398
-0.0764399
-0.0777281
-0.0786307
-0.0784658
-0.0775917
-0.0735995
-0.0701961
-0.058819
-0.0513134
-0.0316029
-0.00198068
0.0344642
0.0592794
0.225527
-1.10348
-2.97567
-0.75487
-0.386998
-0.19736
-0.117625
-0.0649202
-0.0394989
-0.0177338
-0.00527419
0.000224067
0.00731985
0.0119416
0.0165831
0.0201968
0.02348
0.0262826
0.0286944
0.0307752
0.0325583
0.0340859
0.0353892
0.0364966
0.0374311
0.0382115
0.0388538
0.0393707
0.0397726
0.0400672
0.0402602
0.0403557
-0.0567652
-0.0569298
-0.0572584
-0.0577497
-0.0584026
-0.0592138
-0.060179
-0.0612934
-0.0625475
-0.0639271
-0.0654118
-0.0669722
-0.0685689
-0.0701384
-0.0716091
-0.0729067
-0.0737831
-0.0743508
-0.0738539
-0.0730203
-0.0692868
-0.0667126
-0.057244
-0.0510425
-0.0369933
-0.0205546
-0.0200896
-0.054801
-0.115133
0.642795
-0.656639
-1.01555
-0.283247
-0.0821801
-0.051887
-0.0320655
-0.0186778
-0.0041736
0.00491531
0.00788408
0.0131315
0.016193
0.0197412
0.0224476
0.0250601
0.027326
0.0293167
0.0310614
0.0325759
0.0338905
0.035024
0.0359962
0.0368233
0.0375189
0.0380948
0.0385608
0.0389246
0.0391921
0.0393678
0.0394549
-0.0559464
-0.0560941
-0.0563886
-0.056828
-0.05741
-0.0581308
-0.0589857
-0.0599682
-0.061067
-0.0622665
-0.0635461
-0.0648762
-0.0662221
-0.0675225
-0.0687157
-0.0697502
-0.070391
-0.0708443
-0.0702781
-0.0697142
-0.066548
-0.0648758
-0.057454
-0.0528984
-0.0443187
-0.0371558
-0.055431
-0.104796
-0.161664
1.80573
4.78107
0.641111
0.104147
0.0770112
0.0313144
0.00524081
0.00393876
0.00951767
0.0150935
0.01576
0.01921
0.0207903
0.0232548
0.0250368
0.0269523
0.0286501
0.0301907
0.0315736
0.0327946
0.0338743
0.0348194
0.0356404
0.0363463
0.0369456
0.0374456
0.0378529
0.0381724
0.0384084
0.0385639
0.0386411
-0.054983
-0.0551145
-0.0553764
-0.0557664
-0.0562817
-0.0569189
-0.0576727
-0.0585352
-0.059495
-0.060537
-0.0616421
-0.0627829
-0.0639323
-0.0650344
-0.0660397
-0.0669171
-0.0674454
-0.067929
-0.0674719
-0.0672937
-0.0648596
-0.0641039
-0.058913
-0.0564237
-0.0541793
-0.0553654
-0.0842029
-0.107096
0.00741833
1.89515
5.10162
1.68576
0.48414
0.22189
0.107594
0.0408838
0.0258925
0.0223597
0.0245758
0.0233142
0.0251372
0.0254061
0.0268634
0.0277677
0.0290066
0.0301416
0.0312258
0.0322374
0.0331562
0.0339908
0.0347375
0.0353983
0.035975
0.0364708
0.0368888
0.0372321
0.0375034
0.0377048
0.0378379
0.0379042
-0.0538914
-0.0540076
-0.0542387
-0.0545823
-0.0550362
-0.0555967
-0.0562579
-0.057012
-0.0578485
-0.0587541
-0.0597124
-0.0606991
-0.0616962
-0.0626551
-0.0635398
-0.0643356
-0.0648345
-0.0654368
-0.0652019
-0.0654615
-0.0638665
-0.0640649
-0.0613651
-0.061491
-0.0670301
-0.0789496
-0.124398
-0.145935
0.00416359
1.01224
0.665183
0.723196
0.554346
0.294794
0.156997
0.0693465
0.0448363