/*--------------------------------*- C++ -*----------------------------------*\
  =========                 |
  \\      /  F ield         | OpenFOAM: The Open Source CFD Toolbox
   \\    /   O peration     | Website:  https://openfoam.org
    \\  /    A nd           | Version:  12
     \\/     M anipulation  |
\*---------------------------------------------------------------------------*/
FoamFile
{
    format      ascii;
    class       surfaceScalarField;
    location    "140";
    object      phi;
}
// * * * * * * * * * * * * * * * * * * * * * * * * * * * * * * * * * * * * * //

dimensions      [0 3 -1 0 0 0 0];

internalField   nonuniform List<scalar> 
32440
(
-6.99051e-07
0.0399887
6.04025e-07
0.0399887
-2.0889e-06
0.0399907
-7.75567e-07
0.0399887
-3.4533e-06
0.0399907
-2.1203e-06
0.0399987
-2.77371e-06
0.0400107
-3.4108e-06
0.0400106
-2.02744e-06
0.0400106
-6.20195e-07
0.0400106
8.14827e-07
0.0400106
-3.71835e-06
0.0400045
-4.21668e-06
0.0400005
-4.6743e-06
0.0400005
-5.08683e-06
0.0400004
-5.44973e-06
0.0400004
-5.75864e-06
0.0400003
-6.00949e-06
0.0400003
-6.19858e-06
0.0400002
-6.32281e-06
0.0400001
-6.37967e-06
0.0400001
-6.36784e-06
0.04
-6.28682e-06
0.0399999
-6.13748e-06
0.0399999
-5.92184e-06
0.0399998
-5.64319e-06
0.0399997
-5.30605e-06
0.0399997
-4.91534e-06
0.0399996
-6.07925e-06
0.0400012
-1.1265e-05
0.0400052
-1.22991e-05
0.040001
-1.19713e-05
0.0399997
-1.143e-05
0.0399995
-1.08838e-05
0.0399995
-9.34033e-06
0.0399985
-8.80705e-06
0.0399995
-8.2903e-06
0.0399995
-7.79565e-06
0.0399995
-7.32752e-06
0.0399995
-6.88944e-06
0.0399996
-6.48387e-06
0.0399996
-6.11243e-06
0.0399996
-5.77582e-06
0.0399997
-5.47409e-06
0.0399997
-5.20663e-06
0.0399997
-4.97233e-06
0.0399998
-4.76961e-06
0.0399998
-4.59658e-06
0.0399998
-4.45114e-06
0.0399999
-4.33103e-06
0.0399999
-4.23385e-06
0.0399999
-6.15717e-06
0.0400019
-1.20984e-05
0.0400059
-6.05556e-06
0.040006
-2.02619e-06
0.040008
-2.00785e-06
0.04001
1.79797e-09
0.039998
4.97406e-09
0.039988
3.89599e-09
0.03999
0.039988
-2.102e-06
0.0399908
-4.19958e-06
0.0399908
-6.28792e-06
0.0399928
-8.36223e-06
0.0399908
-8.41685e-06
0.0399907
-8.44642e-06
0.0399987
-8.44393e-06
0.0400107
-1.04011e-05
0.0400126
-1.03076e-05
0.0400105
-8.15415e-06
0.0400084
-5.92372e-06
0.0400083
-1.56036e-05
0.0400142
-2.11887e-05
0.0400061
-2.26583e-05
0.0400019
-2.39989e-05
0.0400018
-2.51928e-05
0.0400016
-2.62237e-05
0.0400013
-2.70762e-05
0.0400011
-2.77359e-05
0.0400008
-2.81892e-05
0.0400006
-2.84236e-05
0.0400003
-2.84357e-05
0.04
-2.82191e-05
0.0399997
-2.77736e-05
0.0399994
-2.71034e-05
0.0399991
-2.6017e-05
0.0399986
-2.49277e-05
0.0399986
-2.4054e-05
0.0399987
-2.40152e-05
0.0400011
-2.81435e-05
0.0400093
-2.79467e-05
0.0400008
-2.61754e-05
0.0399979
-2.4352e-05
0.0399976
-2.25062e-05
0.0399976
-2.18664e-05
0.0399978
-2.00599e-05
0.0399977
-1.83089e-05
0.0399977
-1.66349e-05
0.0399978
-1.50552e-05
0.039998
-1.35834e-05
0.0399981
-1.22297e-05
0.0399982
-1.10008e-05
0.0399984
-9.90028e-06
0.0399986
-8.92901e-06
0.0399987
-6.0851e-06
0.0399969
-5.36489e-06
0.039999
-4.76306e-06
0.0399992
-4.27296e-06
0.0399993
-3.88702e-06
0.0399995
-3.59675e-06
0.0399996
-5.39348e-06
0.0400017
-9.2679e-06
0.0400058
-1.1211e-05
0.0400079
-9.21438e-06
0.040004
-7.26879e-06
0.040006
-5.36522e-06
0.0400081
5.05072e-07
0.0399921
-1.6494e-06
0.0399902
1.79754e-07
0.0399882
0.0399882
-3.50215e-06
0.0399943
-6.99659e-06
0.0399943
-8.47917e-06
0.0399943
-1.19439e-05
0.0399942
-1.73829e-05
0.0399962
-1.47857e-05
0.0399961
-1.81474e-05
0.040014
-1.94488e-05
0.0400139
-2.06796e-05
0.0400118
-2.18165e-05
0.0400096
-2.28449e-05
0.0400094
-3.37246e-05
0.0400251
-3.84611e-05
0.0400108
-4.10196e-05
0.0400045
-4.33634e-05
0.0400041
-4.54702e-05
0.0400037
-4.73082e-05
0.0400032
-4.8849e-05
0.0400026
-4.60646e-05
0.0399981
-5.09287e-05
0.0400054
-5.142e-05
0.0400008
-5.15242e-05
0.0400001
-5.12299e-05
0.0399994
-5.05338e-05
0.0399987
-4.94404e-05
0.039998
-4.79621e-05
0.0399972
-4.612e-05
0.0399967
-4.39405e-05
0.0399966
-4.30657e-05
0.0400002
-4.60219e-05
0.0400123
-4.46013e-05
0.0399994
-4.17107e-05
0.039995
-3.85187e-05
0.0399944
-3.52786e-05
0.0399944
-3.10421e-05
0.0399936
-2.78563e-05
0.0399945
-2.47668e-05
0.0399946
-2.18119e-05
0.0399949
-1.90213e-05
0.0399952
-1.64219e-05
0.0399955
-1.40331e-05
0.0399959
-1.18678e-05
0.0399962
-9.93365e-06
0.0399966
-8.23201e-06
0.039997
-8.76127e-06
0.0399974
-7.5152e-06
0.0399978
-6.48447e-06
0.0399982
-3.65733e-06
0.0399965
-3.02007e-06
0.0399988
-4.55775e-06
0.0400011
-6.25461e-06
0.0400034
-1.60934e-05
0.0400156
-1.00597e-05
0.0400019
-8.13614e-06
0.040002
-6.30605e-06
0.0400042
-2.55327e-06
0.0400043
1.13826e-06
0.0399884
7.84047e-07
0.0399905
3.99546e-07
0.0399886
0.0399886
-5.01695e-06
0.0399993
-1.00234e-05
0.0399993
-1.50163e-05
0.0399993
-1.9988e-05
0.0399992
-2.29282e-05
0.0399991
-2.78261e-05
0.040001
-2.66668e-05
0.0400129
-2.94381e-05
0.0400167
-3.21108e-05
0.0400144
-3.66686e-05
0.0400141
-4.10704e-05
0.0400138
-4.92816e-05
0.0400333
-5.72975e-05
0.0400188
-6.30589e-05
0.0400102
-6.65335e-05
0.0400076
-6.76649e-05
0.0400048
-6.842e-05
0.0400039
-6.07596e-05
0.039995
-5.66373e-05
0.0399939
-6.99729e-05
0.0400188
-7.67896e-05
0.0400076
-7.70404e-05
0.0400004
-7.67069e-05
0.0399991
-7.57766e-05
0.0399978
-7.42622e-05
0.0399965
-7.21756e-05
0.0399951
-6.95456e-05
0.0399941
-6.66168e-05
0.0399936
-6.44316e-05
0.0399981
-6.61505e-05
0.040014
-6.33812e-05
0.0399966
-5.90651e-05
0.0399907
-5.41873e-05
0.0399896
-4.94305e-05
0.0399896
-4.58715e-05
0.03999
-4.11831e-05
0.0399898
-3.66306e-05
0.0399901
-3.22718e-05
0.0399905
-2.61545e-05
0.039989
-2.23169e-05
0.0399917
-1.87886e-05
0.0399923
-1.55902e-05
0.039993
-1.27311e-05
0.0399938
-1.02166e-05
0.0399945
-8.04304e-06
0.0399952
-6.20116e-06
0.039996
-4.67771e-06
0.0399966
-5.45537e-06
0.0399973
-2.5144e-06
0.0399959
-1.83242e-06
0.0400004
-1.13855e-05
0.040013
-1.11501e-05
0.0400154
-1.11034e-05
0.0400018
-9.2197e-06
0.0400002
-7.47448e-06
0.0400025
1.5637e-07
0.0399967
-3.03991e-07
0.0399889
1.16785e-06
0.039989
5.94647e-07
0.0399891
0.0399892
-6.58607e-06
0.0400059
-1.31599e-05
0.0400059
-1.97196e-05
0.0400058
-2.62551e-05
0.0400057
-3.27592e-05
0.0400056
-3.72134e-05
0.0400055
-3.56023e-05
0.0400112
-4.19066e-05
0.040023
-4.81004e-05
0.0400206
-5.21498e-05
0.0400182
-5.6017e-05
0.0400176
-6.16493e-05
0.0400389
-7.50146e-05
0.0400322
-8.20761e-05
0.0400173
-8.67634e-05
0.0400123
-9.10219e-05
0.0400091
-8.87875e-05
0.0400017
-7.80275e-05
0.0399842
-8.66191e-05
0.0400025
-9.85023e-05
0.0400307
-0.0001037
0.0400128
-0.000104141
0.0400008
-0.000103803
0.0399987
-0.000102671
0.0399966
-0.000100737
0.0399946
-9.80261e-05
0.0399924
-9.45743e-05
0.0399906
-9.04312e-05
0.0399895
-8.72814e-05
0.0399949
-8.76745e-05
0.0400144
-8.34766e-05
0.0399924
-7.74276e-05
0.0399846
-7.13614e-05
0.0399835
-6.47868e-05
0.039983
-5.7602e-05
0.0399828
-5.1309e-05
0.0399835
-4.51972e-05
0.039984
-3.93435e-05
0.0399847
-3.58176e-05
0.0399855
-3.06675e-05
0.0399865
-2.59338e-05
0.0399876
-1.96438e-05
0.0399867
-1.58107e-05
0.0399899
-1.24402e-05
0.0399911
-9.52626e-06
0.0399923
-7.05768e-06
0.0399935
-5.01554e-06
0.0399946
-3.37627e-06
0.0399957
-4.1126e-06
0.0399966
-1.11945e-05
0.0400075
-2.25892e-05
0.0400243
-1.02698e-05
0.0400031
-8.19997e-06
0.0399997
-8.34686e-06
0.0400003
-4.67814e-06
0.0399988
2.83814e-06
0.0399892
2.23337e-06
0.0399895
1.53811e-06
0.0399897
7.82952e-07
0.0399899
0.03999
-8.18265e-06
0.0400141
-1.43515e-05
0.040012
-2.25083e-05
0.040014
-3.0643e-05
0.0400139
-3.87443e-05
0.0400137
-4.67963e-05
0.0400135
-5.07786e-05
0.0400152
-5.26688e-05
0.0400249
-6.04383e-05
0.0400284
-6.80453e-05
0.0400258
-7.34553e-05
0.040023
-6.26097e-05
0.0400281
-8.73746e-05
0.040057
-0.000101809
0.0400317
-0.000109795
0.0400202
-0.000113256
0.0400125
-0.000110131
0.0399986
-0.000110328
0.0399844
-0.000117715
0.0400099
-0.000128245
0.0400412
-0.000131901
0.0400165
-0.000132595
0.0400015
-0.000132289
0.0399984
-0.000130959
0.0399953
-0.000128598
0.0399922
-0.000125242
0.039989
-0.000120727
0.0399861
-0.000115929
0.0399847
-0.000111319
0.0399903
-0.000110305
0.0400134
-0.00010457
0.0399867
-9.70873e-05
0.0399772
-8.89179e-05
0.0399753
-8.09998e-05
0.0399751
-7.38769e-05
0.0399757
-6.58776e-05
0.0399755
-5.61111e-05
0.0399742
-4.8679e-05
0.0399772
-4.16665e-05
0.0399785
-3.51392e-05
0.03998
-2.91478e-05
0.0399816
-2.57206e-05
0.0399833
-2.08805e-05
0.0399851
-1.46285e-05
0.0399849
-1.09581e-05
0.0399887
-7.85159e-06
0.0399904
-5.28459e-06
0.039992
-3.22637e-06
0.0399936
-3.64155e-06
0.039997
-1.24904e-05
0.0400164
-9.73434e-06
0.0400216
-7.33532e-06
0.0400007
-7.2488e-06
0.0399997
-5.43334e-06
0.0399985
4.15233e-06
0.0399892
3.54706e-06
0.0399898
2.79065e-06
0.0399903
1.92157e-06
0.0399906
9.77776e-07
0.0399908
0.0399909
-9.79991e-06
0.0400239
-1.95877e-05
0.0400218
-2.93658e-05
0.0400238
-3.91256e-05
0.0400236
-4.88565e-05
0.0400234
-5.85417e-05
0.0400232
-6.61597e-05
0.0400228
-6.76768e-05
0.0400264
-7.50747e-05
0.0400358
-8.22996e-05
0.040033
-9.13036e-05
0.040032
-9.60301e-05
0.0400328
-0.000102339
0.0400633
-0.000124238
0.0400536
-0.000131629
0.0400276
-0.000132405
0.0400133
-0.000118518
0.0399847
-0.000139748
0.0400057
-0.000148029
0.0400182
-0.000157281
0.0400504
-0.000161464
0.0400206
-0.000162467
0.0400025
-0.000162234
0.0399982
-0.000160723
0.0399938
-0.000157952
0.0399894
-0.00015372
0.0399848
-0.000148688
0.0399811
-0.000142332
0.0399783
-0.000136577
0.0399845
-0.000134041
0.0400108
-0.000126624
0.0399793
-0.000117171
0.0399677
-0.000107556
0.0399657
-9.73643e-05
0.0399649
-8.65696e-05
0.0399649
-7.67319e-05
0.0399657
-6.9194e-05
0.0399667
-6.00833e-05
0.0399681
-5.15018e-05
0.0399699
-4.15304e-05
0.03997
-3.42255e-05
0.0399743
-2.76256e-05
0.0399767
-2.17499e-05
0.0399792
-1.86004e-05
0.0399817
-1.21656e-05
0.0399822
-8.42188e-06
0.0399866
-5.33638e-06
0.039989
-2.87003e-06
0.0399911
-1.2976e-05
0.0400072
-2.76053e-05
0.040031
-8.71975e-06
0.0400027
-6.26031e-06
0.0399982
-4.17559e-06
0.0399976
3.58394e-06
0.0399907
3.06737e-06
0.0399897
2.32281e-06
0.0399905
1.3976e-06
0.0399912
3.37822e-07
0.0399917
1.18905e-06
0.03999
0.0399921
-9.42747e-06
0.0400333
-2.28502e-05
0.0400352
-3.42663e-05
0.0400352
-4.36695e-05
0.040033
-5.50551e-05
0.0400348
-6.6405e-05
0.0400345
-7.76939e-05
0.0400341
-8.49005e-05
0.0400336
-8.99791e-05
0.0400409
-0.00010089
0.0400439
-0.000111565
0.0400427
-0.000117967
0.0400392
-0.000103983
0.0400493
-0.000135351
0.040085
-0.000158248
0.0400505
-0.000162442
0.0400175
-0.000161863
0.0399841
-0.000170272
0.0400141
-0.000177593
0.0400255
-0.00018768
0.0400605
-0.00019246
0.0400254
-0.000193853
0.0400039
-0.000193731
0.0399981
-0.000192086
0.0399922
-0.000188873
0.0399862
-0.000184115
0.03998
-0.000177893
0.0399749
-0.000170307
0.0399707
-0.000163273
0.0399775
-0.000158843
0.0400064
-0.000149604
0.0399701
-0.000138388
0.0399565
-0.000126551
0.0399539
-0.000114517
0.0399529
-0.000101487
0.0399519
-8.96615e-05
0.0399538
-7.8229e-05
0.0399552
-6.73278e-05
0.0399572
-5.70856e-05
0.0399597
-4.95947e-05
0.0399625
-3.89271e-05
0.0399636
-3.11197e-05
0.0399689
-2.41889e-05
0.0399723
-1.81365e-05
0.0399757
-1.29434e-05
0.039977
-8.57604e-06
0.0399823
-4.99324e-06
0.0399854
-6.14384e-06
0.0399923
-1.59705e-05
0.040017
-1.2418e-05
0.0400275
-7.43098e-06
0.0399977
-4.9429e-06
0.0399957
5.10664e-06
0.0399875
6.77833e-06
0.0399891
6.12862e-06
0.0399904
5.21434e-06
0.0399914
4.09072e-06
0.0399923
2.81132e-06
0.0399929
1.42874e-06
0.0399914
0.0399936
-1.30639e-05
0.0400464
-2.61239e-05
0.0400483
-3.71845e-05
0.0400462
-5.22516e-05
0.0400481
-6.33082e-05
0.0400459
-7.63489e-05
0.0400476
-8.93499e-05
0.0400471
-0.000102282
0.0400465
-0.000107088
0.0400457
-0.000117746
0.0400546
-0.000130181
0.0400552
-0.000142303
0.0400513
-0.000148027
0.040055
-0.000167129
0.0401041
-0.000179652
0.0400631
-0.000179428
0.0400173
-0.000192282
0.039997
-0.000202017
0.0400238
-0.000208487
0.040032
-0.000219512
0.0400716
-0.000225036
0.0400309
-0.000226885
0.0400057
-0.000226951
0.0399981
-0.000225168
0.0399904
-0.000221497
0.0399826
-0.000215992
0.0399745
-0.000208689
0.0399676
-0.000199908
0.039962
-0.000190834
0.0399684
-0.000184754
0.0400003
-0.000173466
0.0399588
-0.000160089
0.0399431
-0.000145813
0.0399396
-0.000131507
0.0399386
-0.00011845
0.0399388
-0.000104468
0.0399398
-9.09783e-05
0.0399417
-7.61627e-05
0.0399424
-6.41598e-05
0.0399477
-5.30819e-05
0.0399514
-4.4994e-05
0.0399555
-3.39507e-05
0.0399579
-2.59593e-05
0.0399643
-1.90106e-05
0.0399687
-1.50766e-05
0.0399731
-8.11711e-06
0.0399753
-6.07368e-06
0.0399833
-1.68807e-05
0.0400031
-3.4467e-05
0.0400346
-6.78845e-06
0.0399998
-3.75057e-06
0.0399947
6.71745e-06
0.0399853
6.68564e-06
0.0399875
6.22267e-06
0.0399895
5.39514e-06
0.0399912
4.26796e-06
0.0399926
4.9044e-06
0.0399917
3.36459e-06
0.0399945
-2.92054e-07
0.039995
0.0399933
-1.46956e-05
0.0400611
-2.73903e-05
0.040061
-4.41065e-05
0.0400629
-5.68341e-05
0.0400608
-7.35844e-05
0.0400626
-8.83378e-05
0.0400623
-0.000101075
0.0400599
-0.000115775
0.0400612
-0.000130391
0.0400603
-0.000134846
0.040059
-0.000147109
0.0400674
-0.000163073
0.0400673
-0.000174621
0.0400666
-0.000177587
0.0401071
-0.000193889
0.0400794
-0.000185451
0.0400088
-0.000217864
0.0400294
-0.000231046
0.040037
-0.00024283
0.0400438
-0.000250965
0.0400797
-0.000257333
0.0400373
-0.00026174
0.0400101
-0.000262072
0.0399985
-0.000260181
0.0399885
-0.000256074
0.0399784
-0.000249714
0.0399681
-0.000241018
0.0399589
-0.000230726
0.0399517
-0.000219999
0.0399577
-0.000211807
0.0399921
-0.000198021
0.039945
-0.000182221
0.0399273
-0.000165838
0.0399232
-0.000148823
0.0399216
-0.000131296
0.0399213
-0.000114944
0.0399235
-9.9224e-05
0.039926
-8.63417e-05
0.0399295
-7.04717e-05
0.0399318
-5.77235e-05
0.0399387
-4.61805e-05
0.039944
-3.78755e-05
0.0399496
-2.68233e-05
0.0399532
-1.89997e-05
0.0399609
-1.23637e-05
0.0399665
-8.85586e-06
0.0399718
-6.40645e-06
0.0399809
-1.29325e-05
0.0400096
-1.03537e-05
0.040032
-2.59964e-06
0.039992
8.42743e-06
0.0399837
8.81359e-06
0.0399849
8.63916e-06
0.0399877
7.98311e-06
0.0399902
6.92119e-06
0.0399923
7.5269e-06
0.039992
3.86965e-06
0.0399953
4.01843e-06
0.0399943
2.03803e-06
0.039997
0.0399953
-1.63163e-05
0.0400774
-3.26432e-05
0.0400773
-4.69965e-05
0.0400773
-6.53983e-05
0.0400792
-7.98322e-05
0.0400771
-9.63193e-05
0.0400788
-0.000112828
0.0400764
-0.000129337
0.0400777
-0.000145804
0.0400768
-0.000162171
0.0400754
-0.000168345
0.0400736
-0.00018226
0.0400812
-0.000195857
0.0400802
-0.00017492
0.0400861
-0.000212966
0.0401174
-0.000234384
0.0400302
-0.000252586
0.0400476
-0.000265477
0.0400499
-0.000272779
0.0400511
-0.000276229
0.0400831
-0.000293594
0.0400547
-0.000298706
0.0400153
-0.000299357
0.0399991
-0.000297445
0.0399866
-0.000292839
0.0399738
-0.000285603
0.0399609
-0.000275777
0.039949
-0.000263728
0.0399396
-0.000250723
0.0399447
-0.000240149
0.0399815
-0.000223946
0.0399288
-0.000205362
0.0399087
-0.000185758
0.0399036
-0.000166316
0.0399021
-0.000147827
0.0399028
-0.000128866
0.0399045
-0.000108715
0.0399059
-9.1612e-05
0.0399124
-7.77462e-05
0.0399179
-6.12561e-05
0.0399222
-4.82083e-05
0.0399309
-3.6639e-05
0.039938
-2.65438e-05
0.0399431
-1.78825e-05
0.0399523
-1.05966e-05
0.0399592
-8.6055e-06
0.0399698
-2.3811e-05
0.0399961
-3.21289e-05
0.0400179
-3.47759e-06
0.0400033
8.2663e-06
0.0399803
1.12039e-05
0.0399807
1.14309e-05
0.0399847
1.10398e-05
0.0399881
1.21197e-05
0.0399891
1.07549e-05
0.0399936
7.02786e-06
0.0399957
7.01544e-06
0.0399953
2.79057e-06
0.0399986
2.42705e-06
0.0399974
0.0399977
-1.79165e-05
0.0400953
-3.58545e-05
0.0400953
-5.38418e-05
0.0400953
-6.98932e-05
0.0400953
-9.00356e-05
0.0400972
-0.000106253
0.040095
-0.000126558
0.0400967
-0.000142902
0.0400941
-0.000161283
0.0400951
-0.000179617
0.0400937
-0.000197832
0.0400918
-0.000205798
0.0400892
-0.000221436
0.0400958
-0.000230629
0.0400953
-0.00023892
0.0401257
-0.000270356
0.0400617
-0.000286616
0.0400638
-0.000297446
0.0400607
-0.000302558
0.0400562
-0.00028365
0.0400642
-0.000318069
0.0400891
-0.000336034
0.0400332
-0.000339176
0.0400023
-0.000337269
0.0399847
-0.000332202
0.0399688
-0.000323766
0.0399525
-0.00031263
0.0399379
-0.00029844
0.0399254
-0.000283237
0.0399295
-0.000269882
0.0399682
-0.00025067
0.0399096
-0.000228739
0.0398868
-0.00020628
0.0398812
-0.000183245
0.0398791
-0.000159879
0.0398794
-0.000138004
0.0398827
-0.000119171
0.039887
-9.7675e-05
0.0398909
-7.96965e-05
0.0399
-6.53765e-05
0.0399079
-4.87982e-05
0.0399144
-3.59673e-05
0.0399252
-2.68594e-05
0.039934
-1.5423e-05
0.0399408
-9.56171e-06
0.0399533
-1.51688e-05
0.0399754
-3.41241e-05
0.040015
-1.23601e-05
0.0399962
1.02779e-05
0.0399807
1.39191e-05
0.0399766
1.46722e-05
0.03998
1.46476e-05
0.0399847
1.39533e-05
0.0399888
1.26859e-05
0.0399904
1.09404e-05
0.0399954
1.0806e-05
0.0399958
8.36546e-06
0.0399978
5.69882e-06
0.0400012
2.88335e-06
0.0400002
0.0400006
-1.94849e-05
0.0401148
-3.90048e-05
0.0401148
-5.85976e-05
0.0401149
-7.82938e-05
0.040115
-9.61114e-05
0.040115
-0.000116076
0.040115
-0.000136184
0.0401168
-0.000156419
0.0401143
-0.000176752
0.0401155
-0.000197127
0.0401141
-0.000215448
0.0401101
-0.000235648
0.0401094
-0.000247538
0.0401077
-0.000263096
0.0401109
-0.000248037
0.0401106
-0.000291574
0.0401052
-0.000318032
0.0400903
-0.000335017
0.0400777
-0.000346164
0.0400673
-0.000347002
0.0400651
-0.000368978
0.0401111
-0.000380083
0.0400443
-0.000381875
0.0400041
-0.000380066
0.0399829
-0.000374555
0.0399633
-0.000365222
0.0399431
-0.000352234
0.0399249
-0.000335947
0.0399091
-0.000317768
0.0399113
-0.000301224
0.0399516
-0.000278528
0.0398869
-0.00025311
0.0398614
-0.000226537
0.0398546
-0.000200022
0.0398526
-0.000175166
0.0398546
-0.000148052
0.0398555
-0.000124282
0.0398633
-0.000104171
0.0398708
-8.19554e-05
0.0398777
-6.37508e-05
0.0398897
-4.96159e-05
0.0399002
-3.35573e-05
0.0399091
-2.1507e-05
0.039922
-1.13764e-05
0.0399307
-9.03939e-06
0.039951
-1.43625e-05
0.0399807
-9.21783e-06
0.0400099
1.25258e-05
0.0399744
1.70434e-05
0.0399762
1.84633e-05
0.0399752
1.89194e-05
0.0399795
1.85389e-05
0.0399851
1.94398e-05
0.0399879
1.5731e-05
0.0399941
1.5516e-05
0.0399956
1.08888e-05
0.0400005
7.94031e-06
0.0400007
6.75542e-06
0.0400024
3.41373e-06
0.0400035
0.040004
-2.10077e-05
0.0401358
-4.00572e-05
0.0401338
-6.12193e-05
0.040136
-8.25248e-05
0.0401363
-0.000104012
0.0401365
-0.00012571
0.0401367
-0.000147632
0.0401387
-0.000169773
0.0401364
-0.000192113
0.0401378
-0.000212594
0.0401346
-0.000237163
0.0401347
-0.000259689
0.0401319
-0.000280019
0.040128
-0.000291977
0.0401229
-0.00030943
0.0401281
-0.000333702
0.0401295
-0.000354859
0.0401115
-0.000372398
0.0400952
-0.000387874
0.0400828
-0.000400857
0.0400781
-0.000416723
0.0401269
-0.000425255
0.0400529
-0.000427931
0.0400067
-0.000426403
0.0399813
-0.000420419
0.0399573
-0.000409955
0.0399327
-0.000394813
0.0399098
-0.000375941
0.0398903
-0.000354693
0.0398901
-0.000334404
0.0399314
-0.000307585
0.03986
-0.000277656
0.0398314
-0.000246967
0.0398239
-0.000216247
0.0398218
-0.000185412
0.0398237
-0.000158643
0.0398288
-0.000129638
0.0398343
-0.000104722
0.0398459
-8.41253e-05
0.0398571
-6.19875e-05
0.0398675
-4.432e-05
0.0398826
-2.90831e-05
0.0398939
-1.61807e-05
0.0399091
-1.14696e-05
0.039926
-2.67695e-05
0.0399663
-3.39481e-05
0.0399879
7.11627e-06
0.0399688
1.86928e-05
0.0399628
2.09375e-05
0.0399739
2.39954e-05
0.0399722
2.40269e-05
0.0399795
2.31685e-05
0.0399859
2.1552e-05
0.0399895
1.9297e-05
0.0399963
1.65135e-05
0.0399984
1.53039e-05
0.0400017
1.17606e-05
0.0400043
7.97224e-06
0.0400062
4.02397e-06
0.0400075
0.0400081
-2.2469e-05
0.0401583
-4.50072e-05
0.0401564
-6.76805e-05
0.0401587
-9.05485e-05
0.0401592
-0.000113664
0.0401596
-0.000137071
0.0401601
-0.000158791
0.0401604
-0.000182852
0.0401605
-0.000205217
0.0401602
-0.000231905
0.0401613
-0.000254785
0.0401576
-0.000279771
0.0401569
-0.000304743
0.040153
-0.000329455
0.0401476
-0.000345636
0.0401443
-0.000368947
0.0401528
-0.000391094
0.0401336
-0.000411622
0.0401158
-0.000429954
0.0401011
-0.000445512
0.0400936
-0.000461688
0.0401431
-0.000474005
0.0400652
-0.000477885
0.0400106
-0.000476831
0.0399803
-0.000470506
0.0399509
-0.000458734
0.0399209
-0.00044165
0.0398927
-0.000419476
0.0398681
-0.000394429
0.039865
-0.000369638
0.0399066
-0.000337947
0.0398284
-0.000303171
0.0397967
-0.000267379
0.0397881
-0.000231785
0.0397863
-0.000196204
0.0397882
-0.000163344
0.0397959
-0.000134744
0.0398057
-0.00010481
0.0398159
-7.97389e-05
0.0398321
-5.76353e-05
0.0398454
-3.84737e-05
0.0398634
-2.21675e-05
0.0398776
-1.05509e-05
0.0398975
-1.74064e-05
0.0399328
-3.65243e-05
0.0399854
1.7663e-07
0.0399512
2.10331e-05
0.039948
2.42746e-05
0.0399596
3.00727e-05
0.0399681
2.86134e-05
0.0399736
3.00677e-05
0.039978
2.85969e-05
0.0399874
2.63379e-05
0.0399918
2.54216e-05
0.0399972
1.99626e-05
0.0400038
1.6069e-05
0.0400056
1.18375e-05
0.0400085
9.35978e-06
0.0400087
4.71864e-06
0.0400121
0.0400128
-2.18394e-05
0.0401801
-4.77898e-05
0.0401823
-7.19032e-05
0.0401828
-9.42581e-05
0.0401815
-0.000118946
0.0401843
-0.000144014
0.0401852
-0.000169531
0.040186
-0.000195508
0.0401865
-0.000221959
0.0401866
-0.000246857
0.0401862
-0.000276174
0.0401869
-0.000303787
0.0401845
-0.000329546
0.0401787
-0.000357243
0.0401753
-0.000382637
0.0401697
-0.000403257
0.0401734
-0.000430825
0.0401612
-0.000452768
0.0401377
-0.00047447
0.0401228
-0.000491249
0.0401104
-0.000494317
0.0401462
-0.000522874
0.0400937
-0.000532372
0.0400201
-0.0005321
0.03998
-0.000525548
0.0399444
-0.000512453
0.0399078
-0.000492823
0.0398731
-0.000467291
0.0398426
-0.000437422
0.0398352
-0.000407314
0.0398765
-0.000369779
0.0397908
-0.00032893
0.0397558
-0.000286952
0.0397461
-0.000245636
0.0397449
-0.000207014
0.0397495
-0.000167546
0.0397564
-0.000133015
0.0397711
-0.000101833
0.0397848
-7.42024e-05
0.0398044
-5.0156e-05
0.0398214
-2.96112e-05
0.0398428
-1.43884e-05
0.0398623
-4.25615e-06
0.0398873
-8.91817e-06
0.0399375
9.8279e-06
0.0399666
2.42695e-05
0.0399368
3.07147e-05
0.0399415
3.14199e-05
0.0399589
3.65632e-05
0.039963
3.83998e-05
0.0399718
3.71138e-05
0.0399793
3.48759e-05
0.0399896
3.18369e-05
0.0399948
2.81313e-05
0.040001
2.58863e-05
0.0400061
2.12043e-05
0.0400102
1.61865e-05
0.0400135
8.92242e-06
0.0400159
5.50117e-06
0.0400155
0.0400183
-2.51249e-05
0.0402052
-5.03692e-05
0.0402076
-7.38162e-05
0.0402063
-0.000101599
0.0402093
-0.00012577
0.0402085
-0.000152448
0.0402119
-0.000179693
0.0402132
-0.000207561
0.0402144
-0.000236084
0.0402152
-0.000265253
0.0402154
-0.000293065
0.0402147
-0.000323422
0.0402149
-0.000354173
0.0402095
-0.000385166
0.0402063
-0.00041604
0.0402005
-0.000446455
0.0402038
-0.000467893
0.0401826
-0.00049785
0.0401676
-0.000519587
0.0401446
-0.000534405
0.0401252
-0.000511307
0.0401231
-0.000562472
0.0401449
-0.000590139
0.0400478
-0.000593072
0.0399829
-0.000586521
0.0399378
-0.000572062
0.0398933
-0.000549594
0.0398506
-0.000519535
0.0398125
-0.000484365
0.0398
-0.000447739
0.0398398
-0.000403145
0.0397462
-0.000354784
0.0397075
-0.000305869
0.0396972
-0.000257844
0.0396969
-0.000211199
0.0397029
-0.000170495
0.0397157
-0.000129656
0.0397303
-9.70374e-05
0.0397521
-6.48203e-05
0.0397722
-4.09184e-05
0.0397975
-1.71832e-05
0.0398191
-5.27891e-06
0.0398504
-2.28134e-05
0.0399049
-2.15726e-05
0.0399362
2.27074e-05
0.0399224
4.0568e-05
0.0399189
4.43083e-05
0.0399378
4.62101e-05
0.039957
4.64918e-05
0.0399627
4.74242e-05
0.0399709
4.32173e-05
0.0399835
4.2048e-05
0.0399908
3.808e-05
0.0399988
3.34546e-05
0.0400056
2.82966e-05
0.0400112
2.27155e-05
0.0400158
1.88113e-05
0.0400174
1.26693e-05
0.0400221
6.37381e-06
0.0400218
0.0400247
-2.62737e-05
0.0402315
-5.26952e-05
0.040234
-7.93752e-05
0.040233
-0.000104429
0.0402343
-0.000134012
0.0402381
-0.000160187
0.040238
-0.000189092
0.0402421
-0.000218799
0.0402441
-0.000249371
0.0402457
-0.000280842
0.0402468
-0.00031321
0.0402471
-0.000344413
0.0402461
-0.000380376
0.0402455
-0.000412862
0.0402387
-0.000447623
0.0402353
-0.000482212
0.0402384
-0.000516162
0.0402166
-0.00054077
0.0401923
-0.000571302
0.0401751
-0.000596752
0.0401507
-0.000606049
0.0401324
-0.000637332
0.0401762
-0.000658076
0.0400685
-0.000660922
0.0399858
-0.000654753
0.0399317
-0.000638846
0.0398774
-0.000613103
0.0398248
-0.00057818
0.0397776
-0.000536071
0.0397579
-0.000491436
0.0397952
-0.000438139
0.0396929
-0.000380938
0.0396503
-0.000323602
0.0396399
-0.000267446
0.0396408
-0.000213819
0.0396493
-0.000165255
0.0396672
-0.000121714
0.0396867
-8.35304e-05
0.039714
-5.07709e-05
0.0397395
-2.32361e-05
0.0397699
-4.5616e-06
0.0398004
-4.27928e-06
0.0398501
-2.18909e-05
0.0399225
2.07231e-05
0.0398936
4.82814e-05
0.0398948
5.526e-05
0.0399119
5.5997e-05
0.039937
5.87929e-05
0.0399542
5.99572e-05
0.0399615
5.57594e-05
0.0399751
5.44222e-05
0.0399849
5.01422e-05
0.0399951
4.50864e-05
0.0400039
3.93989e-05
0.0400113
3.52062e-05
0.0400154
2.86127e-05
0.0400224
1.9713e-05
0.0400263
1.45971e-05
0.0400272
5.33438e-06
0.0400311
0.04003
-2.72665e-05
0.0402588
-5.26984e-05
0.0402594
-8.24657e-05
0.0402627
-0.00011068
0.0402626
-0.000137489
0.0402649
-0.000169075
0.0402696
-0.000197507
0.0402705
-0.000228975
0.0402755
-0.000259521
0.0402763
-0.000293258
0.0402806
-0.000328194
0.040282
-0.000364371
0.0402822
-0.000401669
0.0402828
-0.000439944
0.040277
-0.000478938
0.0402743
-0.000516229
0.0402757
-0.000555303
0.0402556
-0.000595478
0.0402324
-0.000625665
0.0402053
-0.000656916
0.0401819
-0.000681708
0.0401572
-0.000690393
0.0401848
-0.000725294
0.0401034
-0.000736952
0.0399974
-0.000731772
0.0399265
-0.000714631
0.0398603
-0.000685141
0.0397954
-0.000643768
0.0397362
-0.000593537
0.0397076
-0.000539023
0.0397407
-0.000474939
0.0396288
-0.00040699
0.0395823
-0.00033883
0.0395717
-0.000273245
0.0395752
-0.000213703
0.0395897
-0.000156571
0.03961
-0.00010995
0.0396401
-6.61879e-05
0.0396702
-3.5061e-05
0.0397083
-1.21932e-05
0.0397471
4.96357e-06
0.0397833
1.30803e-05
0.039842
3.66979e-05
0.0398989
5.84023e-05
0.0398719
6.88466e-05
0.0398844
6.85443e-05
0.0399122
6.79269e-05
0.0399377
7.32721e-05
0.0399489
7.10194e-05
0.0399638
6.94359e-05
0.0399766
6.47526e-05
0.0399895
5.9171e-05
0.0400007
5.2858e-05
0.0400102
4.79673e-05
0.0400162
3.86063e-05
0.0400248
3.28878e-05
0.0400281
2.4894e-05
0.0400343
1.67047e-05
0.0400354
8.38835e-06
0.0400394
0.0400384
-2.80737e-05
0.0402869
-5.63586e-05
0.0402877
-8.29907e-05
0.0402894
-0.000112176
0.0402917
-0.000144094
0.0402968
-0.000172875
0.0402984
-0.000204731
0.0403024
-0.000237809
0.0403086
-0.000272252
0.0403107
-0.000308187
0.0403165
-0.000345704
0.0403195
-0.000384854
0.0403214
-0.000423606
0.0403215
-0.000465865
0.0403193
-0.000507457
0.0403159
-0.000550069
0.0403183
-0.000596898
0.0403024
-0.000641399
0.0402769
-0.000684583
0.0402485
-0.000716896
0.0402142
-0.000743145
0.0401834
-0.000721098
0.0401628
-0.000787056
0.0401694
-0.000820803
0.0400312
-0.000819562
0.0399252
-0.000801465
0.0398422
-0.00076751
0.0397614
-0.000719004
0.0396877
-0.000658104
0.0396467
-0.000591004
0.0396736
-0.000513375
0.0395512
-0.000431649
0.0395006
-0.00035096
0.039491
-0.000274347
0.0394985
-0.000203248
0.0395186
-0.000140777
0.0395476
-8.68919e-05
0.0395862
-4.56274e-05
0.0396289
-2.24882e-05
0.0396852
-1.67467e-05
0.0397413
-1.36435e-05
0.0397802
5.62178e-06
0.0398228
6.57239e-05
0.0398388
8.38661e-05
0.0398538
8.86219e-05
0.0398796
8.85486e-05
0.0399123
9.00927e-05
0.0399361
8.96785e-05
0.0399493
8.7707e-05
0.0399658
8.24691e-05
0.0399819
7.62074e-05
0.0399958
6.91253e-05
0.0400078
6.33916e-05
0.0400159
5.31396e-05
0.0400264
4.64892e-05
0.0400314
3.55258e-05
0.0400391
2.83378e-05
0.0400415
1.6981e-05
0.0400468
9.52545e-06
0.0400469
0.0400479
-2.86642e-05
0.0403155
-5.7575e-05
0.0403166
-8.68946e-05
0.0403187
-0.000116843
0.0403217
-0.000145602
0.0403256
-0.000177415
0.0403302
-0.000210476
0.0403355
-0.000244981
0.0403431
-0.00028116
0.0403469
-0.000319165
0.0403545
-0.000357147
0.0403575
-0.000399245
0.0403635
-0.00044357
0.0403658
-0.000490066
0.0403658
-0.000536663
0.0403625
-0.000579147
0.0403608
-0.000634355
0.0403577
-0.000690227
0.0403328
-0.00074149
0.0402997
-0.000790654
0.0402634
-0.000825691
0.0402184
-0.00085229
0.0401894
-0.00089452
0.0402116
-0.00091864
0.0400553
-0.000921168
0.0399278
-0.000903007
0.039824
-0.000864278
0.0397227
-0.000806034
0.0396294
-0.000732104
0.0395728
-0.000648453
0.0395899
-0.000553677
0.0394564
-0.000455209
0.0394021
-0.000358622
0.0393944
-0.000268313
0.0394082
-0.000186525
0.0394368
-0.000117869
0.0394789
-6.0592e-05
0.039529
-2.81735e-05
0.0395965
-3.77866e-06
0.0396608
2.77019e-05
0.0397098
3.58092e-05
0.0397721
7.32591e-05
0.0397853
0.000103398
0.0398086
0.00011333
0.0398438
0.000111788
0.0398811
0.000107425
0.0399167
0.000110634
0.0399329
0.000108039
0.0399519
0.000102012
0.0399718
9.48338e-05
0.0399891
8.87547e-05
0.0400019
7.99657e-05
0.0400165
7.06388e-05
0.0400252
6.08875e-05
0.0400362
5.08173e-05
0.0400415
4.2511e-05
0.0400474
3.00243e-05
0.040054
2.14229e-05
0.0400554
1.07419e-05
0.0400576
0.0400586
-2.90068e-05
0.0403445
-5.82963e-05
0.0403459
-8.80499e-05
0.0403484
-0.000116485
0.0403501
-0.000147879
0.040357
-0.000180461
0.0403628
-0.0002165
0.0403715
-0.000250197
0.0403768
-0.000287864
0.0403846
-0.000325717
0.0403924
-0.000370056
0.0404018
-0.000413017
0.0404065
-0.000460814
0.0404136
-0.000511593
0.0404165
-0.0005653
0.0404162
-0.000617826
0.0404133
-0.000678519
0.0404183
-0.000738872
0.0403932
-0.000799918
0.0403608
-0.000859809
0.0403233
-0.000916223
0.0402749
-0.000956194
0.0402294
-0.000989655
0.0402451
-0.00103049
0.0400961
-0.00103899
0.0399363
-0.00102128
0.0398063
-0.000977394
0.0396788
-0.000907499
0.0395595
-0.000814783
0.0394801
-0.000709287
0.0394844
-0.000594537
0.0393417
-0.000474465
0.039282
-0.000358841
0.0392788
-0.000252822
0.0393022
-0.000160554
0.0393446
-8.1249e-05
0.0393996
-3.4539e-05
0.0394822
-1.9571e-06
0.0395639
4.0385e-05
0.0396184
8.04205e-05
0.0396698
0.000108128
0.0397444
0.000130861
0.0397626
0.000140114
0.0397994
0.00014299
0.039841
0.000140397
0.0398837
0.000139033
0.039918
0.00013549
0.0399365
0.000130312
0.039957
0.000121871
0.0399802