/*--------------------------------*- C++ -*----------------------------------*\
  =========                 |
  \\      /  F ield         | OpenFOAM: The Open Source CFD Toolbox
   \\    /   O peration     | Website:  https://openfoam.org
    \\  /    A nd           | Version:  12
     \\/     M anipulation  |
\*---------------------------------------------------------------------------*/
FoamFile
{
    format      ascii;
    class       volVectorField;
    location    "140";
    object      U;
}
// * * * * * * * * * * * * * * * * * * * * * * * * * * * * * * * * * * * * * //

dimensions      [0 1 -1 0 0 0 0];

internalField   nonuniform List<vector> 
16227
(
(2 -1.37564e-05 -2.36479e-23)
(2 -4.123e-05 2.40958e-23)
(2 -6.85883e-05 -2.40961e-23)
(2 -9.58234e-05 -2.51035e-23)
(2 -0.000122861 2.51038e-23)
(2 -0.000149622 2.6768e-23)
(2 -0.000176043 1.08058e-24)
(2 -0.00020202 -5.69245e-23)
(2 -0.000227434 9.00399e-23)
(2 -0.000252142 -6.09574e-23)
(2 -0.000275988 0)
(2 -0.000298814 6.913e-23)
(2 -0.000320458 0)
(2 -0.000340754 0)
(2 -0.000359457 0)
(2 -0.000376359 0)
(2 -0.000391242 0)
(2 -0.000403889 0)
(2 -0.000414092 0)
(2 -0.00042166 0)
(2 -0.000426426 -1.13813e-22)
(2 -0.000428263 -5.30987e-24)
(2 -0.000427081 1.19124e-22)
(2 -0.000422839 0)
(2 -0.000415556 -1.3484e-22)
(2 -0.000405307 1.3484e-22)
(2 -0.000392237 0)
(2 -0.000376523 7.36188e-23)
(2 -0.000358439 0)
(2 -0.00033831 0)
(2 -0.000316469 0)
(2 -0.000293306 0)
(2 -0.000269193 0)
(2 -0.00024455 1.72171e-22)
(2 -0.000219767 2.75074e-24)
(2 -0.000195222 -1.74926e-22)
(2 -0.000171256 0)
(2 -0.000148177 1.81377e-22)
(2 -0.000126249 1.58357e-24)
(2 -0.000105687 -1.82962e-22)
(2 -8.66613e-05 0)
(2 -6.92909e-05 0)
(2 -5.36516e-05 0)
(2 -3.97785e-05 0)
(2 -2.76689e-05 0)
(2 -1.72896e-05 0)
(2 -8.58091e-06 0)
(2 -1.46273e-06 0)
(2 4.16184e-06 0)
(2 8.40185e-06 0)
(2 1.13742e-05 0)
(2 1.32018e-05 0)
(2 1.40119e-05 0)
(2 1.39256e-05 0)
(2 1.30683e-05 -9.3544e-23)
(2 1.15629e-05 9.35482e-23)
(2 9.53187e-06 0)
(2 7.09714e-06 0)
(2 4.37589e-06 0)
(2 1.48227e-06 9.31845e-23)
(2.00006 -4.62683e-05 3.3719e-25)
(2.00006 -0.000138638 0)
(2.00006 -0.000230709 0)
(2.00006 -0.000322471 0)
(2.00006 -0.000413679 -4.25725e-23)
(2.00006 -0.000504155 0)
(2.00006 -0.000593658 0)
(2.00006 -0.000681894 -1.45579e-22)
(2.00006 -0.000768466 9.79453e-23)
(2.00006 -0.000852939 -2.15876e-22)
(2.00005 -0.000934739 8.91282e-22)
(2.00005 -0.00101325 -5.78865e-22)
(2.00005 -0.00108805 3.01241e-22)
(2.00004 -0.00115848 0)
(2.00004 -0.00122372 0)
(2.00004 -0.001283 0)
(2.00003 -0.00133551 0)
(2.00003 -0.00138045 0)
(2.00002 -0.00141704 0)
(2.00001 -0.00144455 0)
(2.00001 -0.00146229 0)
(2 -0.0014698 0)
(1.99999 -0.00146671 0)
(1.99999 -0.00145279 0)
(1.99998 -0.00142805 0)
(1.99997 -0.0013927 -2.36638e-22)
(1.99997 -0.00134721 2.36645e-22)
(1.99996 -0.00129222 -1.24444e-22)
(1.99996 -0.00122863 0)
(1.99995 -0.00115756 0)
(1.99995 -0.00108026 0)
(1.99994 -0.000998097 0)
(1.99994 -0.000912458 0)
(1.99994 -0.000824833 0)
(1.99994 -0.000736649 0)
(1.99994 -0.00064929 -3.0024e-22)
(1.99995 -0.000564021 -3.61479e-24)
(1.99995 -0.00048196 -3.12337e-24)
(1.99995 -0.000404095 -2.65646e-24)
(1.99995 -0.000331227 3.09678e-22)
(1.99996 -0.000263984 3.13719e-22)
(1.99996 -0.000202819 -3.13727e-22)
(1.99997 -0.000148018 0)
(1.99997 -9.97151e-05 0)
(1.99997 -5.79102e-05 0)
(1.99998 -2.24759e-05 0)
(1.99998 6.79736e-06 0)
(1.99999 3.02057e-05 0)
(1.99999 4.8105e-05 0)
(1.99999 6.08972e-05 0)
(2 6.90126e-05 3.17615e-22)
(2 7.29031e-05 -6.35014e-22)
(2 7.30325e-05 -6.3381e-22)
(2 6.98611e-05 6.33839e-22)
(2 6.38483e-05 -6.32633e-22)
(2 5.54453e-05 9.48686e-22)
(2.00001 4.51054e-05 -3.16188e-22)
(2.00001 3.32739e-05 1.5794e-22)
(2.00001 2.03872e-05 -1.57942e-22)
(2.00001 6.86952e-06 -3.68058e-26)
(2.00018 -8.12505e-05 3.95894e-23)
(2.00018 -0.00024338 0)
(2.00018 -0.000405117 0)
(2.00018 -0.000566412 0)
(2.00018 -0.000726896 4.25648e-23)
(2.00018 -0.000886259 -8.92018e-23)
(2.00018 -0.00104415 -3.67355e-24)
(2.00017 -0.00120005 1.40458e-22)
(2.00017 -0.00135332 4.92905e-23)
(2.00017 -0.0015032 2.14182e-22)
(2.00016 -0.00164878 -2.08948e-22)
(2.00015 -0.0017888 -4.5811e-22)
(2.00014 -0.00192262 6.03892e-23)
(2.00013 -0.00204914 0)
(2.00012 -0.00216677 6.80903e-23)
(2.00011 -0.00227418 0)
(2.0001 -0.00236989 0)
(2.00008 -0.00245243 0)
(2.00006 -0.00252034 -3.48272e-22)
(2.00005 -0.00257224 3.48232e-22)
(2.00003 -0.00260682 -1.9214e-22)
(2 -0.00262321 1.9214e-22)
(1.99998 -0.00262068 0)
(1.99996 -0.00259872 -2.19395e-22)
(1.99994 -0.00255725 -8.87395e-24)
(1.99992 -0.0024966 2.28287e-22)
(1.9999 -0.00241752 0)
(1.99988 -0.00232113 0)
(1.99987 -0.00220901 0)
(1.99985 -0.00208309 0)
(1.99984 -0.00194561 1.38798e-22)
(1.99983 -0.00179906 -2.7504e-22)
(1.99983 -0.00164595 0)
(1.99983 -0.00148898 0)
(1.99983 -0.00133072 2.9689e-22)
(1.99983 -0.00117372 -2.96914e-22)
(1.99983 -0.00102027 0)
(1.99984 -0.000872424 0)
(1.99985 -0.000732006 0)
(1.99986 -0.00060047 0)
(1.99987 -0.000478988 0)
(1.99988 -0.000368402 0)
(1.9999 -0.000269248 -1.58384e-22)
(1.99991 -0.000181793 0)
(1.99992 -0.000106043 0)
(1.99994 -4.17932e-05 0)
(1.99995 1.13261e-05 -1.59111e-22)
(1.99996 5.38365e-05 3.18464e-22)
(1.99997 8.63804e-05 0)
(1.99998 0.000109675 1.59123e-22)
(1.99999 0.000124491 0)
(2 0.000131649 3.17373e-22)
(2 0.00013197 6.33816e-22)
(2.00001 0.000126306 1.57707e-22)
(2.00001 0.000115478 -6.33225e-22)
(2.00002 0.000100308 3.16038e-22)
(2.00002 8.16195e-05 -3.16179e-22)
(2.00002 6.0214e-05 0)
(2.00003 3.6891e-05 0)
(2.00003 1.24089e-05 -1.57311e-22)
(2.00038 -0.000119044 0)
(2.00038 -0.000356592 0)
(2.00038 -0.00059369 -3.90263e-23)
(2.00038 -0.000830251 0)
(2.00038 -0.00106576 -4.22737e-23)
(2.00037 -0.00129986 4.22687e-23)
(2.00037 -0.00153201 0)
(2.00036 -0.00176155 -1.45002e-22)
(2.00036 -0.00198751 1.41869e-22)
(2.00035 -0.0022089 0)
(2.00034 -0.00242446 -2.23e-22)
(2.00032 -0.00263217 -6.85765e-22)
(2.00031 -0.00283123 -1.21683e-22)
(2.00029 -0.00301998 0)
(2.00026 -0.00319607 -6.8048e-23)
(2.00024 -0.00335747 0)
(2.00021 -0.00350203 0)
(2.00018 -0.00362755 6.58673e-22)
(2.00014 -0.00373182 -6.58813e-22)
(2.0001 -0.00381248 0)
(2.00006 -0.00386774 -1.91879e-22)
(2.00002 -0.00389627 -9.28891e-24)
(1.99997 -0.00389675 -9.27726e-24)
(1.99993 -0.00386832 2.10459e-22)
(1.99988 -0.0038108 0)
(1.99984 -0.0037246 0)
(1.99979 -0.00361073 0)
(1.99976 -0.00347081 1.27149e-22)
(1.99972 -0.0033071 2.38565e-24)
(1.99969 -0.00312246 1.34647e-22)
(1.99967 -0.00292025 1.44332e-24)
(1.99965 -0.00270413 0)
(1.99964 -0.0024779 0)
(1.99963 -0.00224556 0)
(1.99963 -0.00201101 -2.98241e-22)
(1.99964 -0.00177801 -4.07158e-24)
(1.99965 -0.00155006 -3.5328e-24)
(1.99966 -0.00133025 -3.01687e-24)
(1.99968 -0.0011213 6.20532e-22)
(1.9997 -0.000925361 -3.11558e-22)
(1.99973 -0.000744214 0)
(1.99976 -0.00057912 -1.58371e-22)
(1.99978 -0.000430886 1.58383e-22)
(1.99981 -0.000299902 0)
(1.99984 -0.000186183 0)
(1.99986 -8.94497e-05 0)
(1.99989 -9.13974e-06 -1.59347e-22)
(1.99991 5.55213e-05 0)
(1.99993 0.000105469 0)
(1.99995 0.000141764 -3.18384e-22)
(1.99997 0.000165546 -6.35459e-22)
(1.99999 0.000178024 1.26975e-21)
(2 0.000180421 -6.34697e-22)
(2.00002 0.000173979 -7.91551e-22)
(2.00003 0.000159911 6.33153e-22)
(2.00004 0.000139434 0)
(2.00004 0.000113768 0)
(2.00005 8.40844e-05 1.57806e-22)
(2.00005 5.15736e-05 0)
(2.00006 1.7337e-05 0)
(2.00066 -0.000158136 0)
(2.00066 -0.000473774 0)
(2.00066 -0.000788942 1.21707e-24)
(2.00066 -0.00110354 0)
(2.00065 -0.00141698 0)
(2.00065 -0.0017288 -8.40289e-23)
(2.00064 -0.00203836 -1.35749e-22)
(2.00063 -0.00234481 1.32341e-22)
(2.00062 -0.002647 0)
(2.0006 -0.00294357 0)
(2.00059 -0.00323303 -2.1922e-22)
(2.00056 -0.00351256 1.3592e-21)
(2.00053 -0.00378116 -1.18371e-22)
(2.0005 -0.00403644 1.22873e-22)
(2.00046 -0.00427546 0)
(2.00042 -0.00449543 0)
(2.00037 -0.0046933 3.09624e-22)
(2.00031 -0.00486626 9.79797e-22)
(2.00025 -0.00501119 -4.87176e-22)
(2.00018 -0.0051243 0)
(2.00011 -0.00520354 0)
(2.00004 -0.00524712 0)
(1.99996 -0.00525279 0)
(1.99988 -0.00521936 -2.20068e-22)
(1.9998 -0.00514643 -9.28337e-24)
(1.99972 -0.00503442 -9.05172e-24)
(1.99965 -0.00488462 2.38468e-22)
(1.99958 -0.00469917 1.26206e-22)
(1.99952 -0.00448105 2.31606e-24)
(1.99947 -0.00423412 -1.31726e-22)
(1.99942 -0.00396297 4.15914e-22)
(1.99939 -0.00367259 -2.78073e-22)
(1.99937 -0.00336822 -2.90288e-22)
(1.99936 -0.0030553 2.90335e-22)
(1.99936 -0.0027392 3.00189e-22)
(1.99937 -0.00242505 -3.00239e-22)
(1.99938 -0.0021176 0)
(1.99941 -0.00182111 0)
(1.99944 -0.00153924 -3.13182e-22)
(1.99948 -0.00127493 3.13202e-22)
(1.99952 -0.00103057 3.16705e-22)
(1.99957 -0.000807819 -1.5838e-22)
(1.99962 -0.000607768 0)
(1.99966 -0.000430875 0)
(1.99971 -0.000277181 0)
(1.99976 -0.000146252 0)
(1.9998 -3.73049e-05 0)
(1.99984 5.07067e-05 0)
(1.99988 0.00011907 -1.5965e-22)
(1.99992 0.000169221 -7.96236e-22)
(1.99995 0.000202695 6.3634e-22)
(1.99998 0.000221105 6.34615e-22)
(2.00001 0.000226112 -9.52047e-22)
(2.00003 0.000219359 6.33053e-22)
(2.00005 0.00020246 -6.33075e-22)
(2.00006 0.00017706 0)
(2.00008 0.000144776 0)
(2.00008 0.000107151 -1.34535e-25)
(2.00009 6.57759e-05 0)
(2.00009 2.21003e-05 0)
(2.00102 -0.000197858 -3.53099e-23)
(2.00102 -0.000592905 0)
(2.00101 -0.000987524 2.43234e-25)
(2.00101 -0.00138164 3.75437e-23)
(2.00101 -0.00177464 0)
(2.001 -0.00216602 1.47066e-24)
(2.00099 -0.00255503 -8.6624e-23)
(2.00098 -0.00294067 8.65946e-23)
(2.00096 -0.00332163 0)
(2.00094 -0.00369623 0)
(2.00091 -0.0040628 1.02632e-22)
(2.00087 -0.00441776 4.35691e-22)
(2.00083 -0.00475953 -2.36278e-22)
(2.00078 -0.0050853 1.23092e-22)
(2.00073 -0.00539155 0)
(2.00066 -0.00567448 -1.4457e-22)
(2.00058 -0.00593022 1.44606e-22)
(2.0005 -0.00615521 1.60497e-23)
(2.0004 -0.00634504 -7.34174e-22)
(2.0003 -0.00649463 -1.81298e-22)
(2.00018 -0.00660152 1.76193e-22)
(2.00007 -0.00666318 -9.83874e-24)
(1.99994 -0.00667637 2.01022e-22)
(1.99982 -0.00663949 0)
(1.99969 -0.00655174 0)
(1.99957 -0.0064135 0)
(1.99946 -0.00622633 0)
(1.99935 -0.0059929 -1.26141e-22)
(1.99925 -0.00571702 0)
(1.99917 -0.0054036 0)
(1.9991 -0.00505862 4.20838e-22)
(1.99905 -0.00468868 -2.80417e-22)
(1.99902 -0.00430049 0)
(1.999 -0.00390124 0)
(1.999 -0.00349789 0)
(1.99901 -0.0030971 0)
(1.99904 -0.00270508 3.10138e-22)
(1.99908 -0.00232723 2.79157e-24)
(1.99913 -0.00196831 -4.70853e-22)
(1.99919 -0.00163207 0)
(1.99926 -0.00132148 0)
(1.99933 -0.00103863 3.19491e-22)
(1.9994 -0.000784801 -4.79901e-22)
(1.99948 -0.000560551 0)
(1.99955 -0.000365815 0)
(1.99962 -0.000199978 0)
(1.99969 -6.19765e-05 0)
(1.99975 4.9573e-05 0)
(1.99981 0.000136355 4.78924e-22)
(1.99987 0.000200218 1.27382e-21)
(1.99992 0.000243156 -1.2738e-21)
(1.99997 0.000267221 6.34951e-22)
(2.00001 0.000274503 -3.17786e-22)
(2.00004 0.000267066 0)
(2.00007 0.000246965 1.58059e-22)
(2.00009 0.000216279 0)
(2.00011 0.000177009 0)
(2.00013 0.000131085 -1.57679e-22)
(2.00014 8.04938e-05 0)
(2.00014 2.70308e-05 1.56809e-22)
(2.00145 -0.00023804 1.78846e-24)
(2.00145 -0.000713487 0)
(2.00145 -0.00118862 0)
(2.00144 -0.00166345 -3.53672e-23)
(2.00144 -0.00213738 0)
(2.00143 -0.00260989 3.97501e-23)
(2.00142 -0.00308022 -4.17118e-23)
(2.0014 -0.00354719 8.34931e-23)
(2.00138 -0.00400942 0)
(2.00135 -0.00446489 -1.96465e-22)
(2.00131 -0.00491178 9.38568e-23)
(2.00126 -0.0053462 8.24902e-24)
(2.0012 -0.0057651 4.58279e-22)
(2.00114 -0.00616581 -2.48695e-22)
(2.00105 -0.00654393 -8.17446e-24)
(2.00096 -0.00689476 -8.27378e-23)
(2.00085 -0.00721351 1.49876e-21)
(2.00073 -0.00749571 -5.69e-22)
(2.00059 -0.00773537 -1.06816e-21)
(2.00044 -0.00792613 1.55932e-21)
(2.00028 -0.008065 1.79935e-22)
(2.00011 -0.00814832 -2.00933e-22)
(1.99993 -0.00817173 -1.02337e-23)
(1.99975 -0.00813305 2.11204e-22)
(1.99957 -0.00803098 0)
(1.99939 -0.0078658 0)
(1.99923 -0.00763926 0)
(1.99907 -0.00735461 0)
(1.99893 -0.00701655 1.32715e-22)
(1.99881 -0.00663122 0)
(1.99871 -0.00620625 -4.19062e-22)
(1.99863 -0.00574996 0)
(1.99858 -0.00527091 2.95936e-22)
(1.99855 -0.00477817 -2.96013e-22)
(1.99855 -0.00428061 3.05838e-22)
(1.99857 -0.00378661 3.86378e-24)
(1.99861 -0.00330399 -6.22924e-22)
(1.99867 -0.00283943 3.13124e-22)
(1.99875 -0.00239882 -1.60065e-22)
(1.99883 -0.00198681 3.17947e-22)
(1.99893 -0.0016069 1.60785e-22)
(1.99903 -0.00126158 0)
(1.99914 -0.000952286 1.60416e-22)
(1.99925 -0.000679572 0)
(1.99935 -0.000443201 0)
(1.99945 -0.000242291 1.61176e-22)
(1.99955 -7.54071e-05 -1.60905e-22)
(1.99964 5.92383e-05 0)
(1.99973 0.000163809 1.91914e-21)
(1.99981 0.000240635 1.27181e-21)
(1.99988 0.000292168 -2.55018e-21)
(1.99995 0.000320962 -6.35054e-22)
(2.00001 0.000329561 1.42745e-21)
(2.00006 0.000320481 -6.33856e-22)
(2.0001 0.000296242 -1.58092e-22)
(2.00013 0.000259359 0)
(2.00016 0.000212212 3.14944e-22)
(2.00018 0.000157121 -1.57491e-22)
(2.0002 9.64661e-05 0)
(2.0002 3.23805e-05 -2.47809e-25)
(2.00197 -0.000278468 3.35089e-23)
(2.00197 -0.000834912 0)
(2.00196 -0.00139126 0)
(2.00196 -0.00194763 3.36532e-23)
(2.00195 -0.00250353 -1.32695e-24)
(2.00194 -0.00305849 3.62892e-23)
(2.00193 -0.00361176 -3.76952e-23)
(2.0019 -0.0041621 -1.25833e-22)
(2.00188 -0.00470804 8.40269e-23)
(2.00184 -0.00524727 -1.89312e-22)
(2.00179 -0.00577769 -6.0187e-23)
(2.00173 -0.00629555 3.03741e-22)
(2.00165 -0.00679627 -9.01452e-22)
(2.00156 -0.00727646 -4.90952e-22)
(2.00145 -0.00773175 4.90986e-22)
(2.00133 -0.00815612 -6.83853e-23)
(2.00118 -0.00854398 1.74555e-21)
(2.00102 -0.0088891 -2.79341e-22)
(2.00083 -0.00918433 -3.30261e-22)
(2.00063 -0.00942182 -1.05945e-21)
(2.00041 -0.0095976 1.83605e-22)
(2.00017 -0.00970673 0)
(1.99993 -0.00974351 0)
(1.99968 -0.0097049 -2.22244e-22)
(1.99943 -0.009589 -1.04663e-23)
(1.99918 -0.00939581 2.32803e-22)
(1.99895 -0.00912721 0)
(1.99873 -0.0087871 2.62261e-22)
(1.99853 -0.00838121 -3.94914e-22)
(1.99836 -0.00791708 0)
(1.99822 -0.00740421 1.42131e-22)
(1.99812 -0.00685307 -5.80638e-22)
(1.99804 -0.00627434 -5.97863e-24)
(1.99801 -0.00567934 6.04943e-22)
(1.99801 -0.00507914 4.46986e-24)
(1.99804 -0.00448405 -3.09738e-22)
(1.99809 -0.0039037 0)
(1.99818 -0.00334628 3.19113e-22)
(1.99828 -0.00281882 1.8273e-24)
(1.9984 -0.0023269 -3.21071e-22)
(1.99854 -0.00187451 -3.23058e-22)
(1.99868 -0.00146455 0)
(1.99882 -0.00109843 0)
(1.99897 -0.000776633 -1.62448e-22)
(1.99911 -0.000498635 0)
(1.99925 -0.000263155 -3.23075e-22)
(1.99939 -6.83066e-05 1.60924e-22)
(1.99952 8.82402e-05 -3.21982e-22)
(1.99963 0.000209167 -1.92354e-21)
(1.99974 0.00029741 -1.27589e-21)
(1.99984 0.000355932 6.38124e-22)
(1.99993 0.000387793 -1.7119e-24)
(2.00001 0.000396024 -9.52212e-22)
(2.00007 0.000383646 3.16556e-22)
(2.00013 0.000353669 0)
(2.00018 0.000309032 0)
(2.00022 0.000252488 -2.55619e-25)
(2.00024 0.000186751 0)
(2.00026 0.000114587 0)
(2.00027 3.84497e-05 -1.56569e-22)
(2.00257 -0.000318967 0)
(2.00257 -0.000956613 0)
(2.00256 -0.00159444 3.00077e-23)
(2.00256 -0.00223283 -3.32657e-23)
(2.00255 -0.00287143 0)
(2.00254 -0.00350985 -6.92516e-23)
(2.00252 -0.00414748 3.57347e-23)
(2.0025 -0.00478309 3.76177e-23)
(2.00246 -0.00541507 0)
(2.00242 -0.006041 0)
(2.00236 -0.00665844 -1.45823e-22)
(2.00228 -0.00726368 9.14955e-23)
(2.00219 -0.0078515 4.44751e-22)
(2.00207 -0.00841647 1.36228e-21)
(2.00193 -0.00895473 0)
(2.00177 -0.00945895 -2.61439e-22)
(2.00158 -0.0099227 -1.14661e-21)
(2.00137 -0.0103376 -3.00926e-22)
(2.00113 -0.0106952 -6.60927e-22)
(2.00086 -0.010986 1.56401e-22)
(2.00057 -0.0112046 -3.79443e-22)
(2.00026 -0.0113446 -1.12495e-23)
(1.99993 -0.0113985 -1.1294e-23)
(1.9996 -0.0113623 2.12062e-22)
(1.99926 -0.0112331 0)
(1.99893 -0.0110104 0)
(1.99862 -0.0106964 0)
(1.99832 -0.0102955 1.31303e-22)
(1.99806 -0.00981459 -1.36207e-22)
(1.99783 -0.00926295 0)
(1.99764 -0.00865233 2.86405e-22)
(1.9975 -0.00799574 -2.91282e-22)
(1.9974 -0.0073064 0)
(1.99736 -0.00659839 0)
(1.99736 -0.00588524 4.71647e-22)
(1.9974 -0.00517962 -3.14285e-22)
(1.99748 -0.00449318 -3.20814e-22)
(1.99759 -0.00383583 6.43988e-22)
(1.99773 -0.00321574 -3.23148e-22)
(1.99789 -0.00263945 0)
(1.99807 -0.00211145 4.88547e-22)
(1.99826 -0.00163483 -3.26314e-22)
(1.99845 -0.00121096 -1.63877e-22)
(1.99865 -0.00084002 3.26058e-22)
(1.99884 -0.000521069 0)
(1.99902 -0.000252294 1.61904e-22)
(1.9992 -3.11808e-05 -3.24162e-22)
(1.99937 0.000145243 3.21899e-22)
(1.99952 0.000280359 -1.28028e-21)
(1.99966 0.000377642 6.41693e-22)
(1.99979 0.00044068 3.17503e-22)
(1.99991 0.000473144 1.58777e-22)
(2.00001 0.00047858 -1.58788e-22)
(2.0001 0.000460548 -1.58154e-22)
(2.00017 0.00042257 3.15058e-22)
(2.00023 0.000367969 -3.10504e-25)
(2.00028 0.000299887 -3.14394e-22)
(2.00032 0.000221429 1.56649e-22)
(2.00034 0.000135718 0)
(2.00035 4.55243e-05 0)
(2.00325 -0.000359341 0)
(2.00324 -0.00107798 0)
(2.00324 -0.00179725 -5.73094e-23)
(2.00324 -0.00251778 0)
(2.00323 -0.00323951 0)
(2.00322 -0.00396221 2.66098e-24)
(2.0032 -0.0046854 0)
(2.00317 -0.00540798 -3.7388e-23)
(2.00314 -0.00612841 -3.97994e-23)
(2.00308 -0.00684403 3.9948e-23)
(2.00301 -0.00755213 -1.84258e-22)
(2.00292 -0.00824902 1.84201e-22)
(2.00281 -0.00892922 0)
(2.00267 -0.00958516 -1.34473e-21)
(2.0025 -0.0102134 -1.98713e-22)
(2.0023 -0.0108047 3.27493e-22)
(2.00206 -0.0113521 -1.61837e-21)
(2.00179 -0.0118448 6.09474e-22)
(2.00148 -0.0122732 -3.08671e-22)
(2.00114 -0.0126253 0)
(2.00077 -0.012894 -3.63935e-22)
(2.00037 -0.0130709 0)
(1.99995 -0.0131468 -2.12529e-22)
(1.99951 -0.0131158 2.12578e-22)
(1.99908 -0.0129741 -2.36313e-22)
(1.99864 -0.0127203 1.14585e-22)
(1.99823 -0.0123567 0)
(1.99784 -0.0118883 -1.31234e-22)
(1.9975 -0.0113236 4.13063e-22)
(1.9972 -0.0106736 1.43165e-22)
(1.99695 -0.00995293 -3.01716e-22)
(1.99677 -0.00917773 -1.58756e-22)
(1.99665 -0.00836436 3.03668e-22)
(1.99659 -0.00753008 0)
(1.99659 -0.00669151 1.62086e-22)
(1.99664 -0.00586413 3.38938e-24)
(1.99675 -0.00506173 2.56961e-24)
(1.9969 -0.00429624 -3.25849e-22)
(1.99708 -0.00357705 3.28916e-22)
(1.9973 -0.00291164 -4.94831e-22)
(1.99753 -0.00230485 1.659e-22)
(1.99778 -0.00175985 0)
(1.99803 -0.00127776 1.63912e-22)
(1.99828 -0.000858265 -1.63618e-22)
(1.99853 -0.000499792 0)
(1.99876 -0.000199796 0)
(1.99899 4.5028e-05 3.24189e-22)
(1.9992 0.000238396 -4.68295e-24)
(1.9994 0.000384625 -5.57264e-24)
(1.99958 0.000487789 1.27789e-21)
(1.99974 0.000552123 3.19204e-22)
(1.99989 0.00058198 1.58977e-22)
(2.00002 0.000581487 1.58158e-22)
(2.00013 0.000554808 -4.94673e-25)
(2.00022 0.000505934 -1.57942e-22)
(2.0003 0.000438566 0)
(2.00036 0.000356241 0)
(2.00041 0.000262441 -3.12888e-22)
(2.00044 0.000160632 0)
(2.00045 5.38648e-05 0)
(2.00401 -0.00039938 0)
(2.004 -0.00119845 0)
(2.004 -0.00199866 9.67852e-25)
(2.004 -0.00280113 2.63232e-23)
(2.004 -0.00360603 0)
(2.00399 -0.00441352 3.08548e-23)
(2.00397 -0.00522328 3.23191e-23)
(2.00394 -0.00603445 2.29365e-24)
(2.0039 -0.00684558 2.60193e-24)
(2.00384 -0.0076541 -4.01411e-23)
(2.00376 -0.00845682 4.01264e-23)
(2.00366 -0.00924989 4.36678e-23)
(2.00353 -0.0100284 -9.49918e-23)
(2.00336 -0.0107823 -8.26786e-22)
(2.00316 -0.0115077 -2.44793e-22)
(2.00291 -0.0121952 9.86933e-22)
(2.00262 -0.0128354 8.27438e-22)
(2.00229 -0.0134155 -5.83213e-22)
(2.00191 -0.0139246 6.28565e-22)
(2.00148 -0.0143477 1.01507e-21)
(2.00102 -0.0146757 1.76108e-22)
(2.00051 -0.0148972 -5.96685e-24)
(1.99998 -0.0150011 -2.13075e-22)
(1.99943 -0.0149794 4.39028e-22)
(1.99887 -0.0148263 -2.25972e-22)
(1.99831 -0.0145397 1.21725e-22)
(1.99778 -0.0141214 0)
(1.99729 -0.0135775 1.35544e-22)
(1.99684 -0.0129179 1.47531e-22)
(1.99646 -0.012156 -1.38418e-22)
(1.99614 -0.0113101 1.48388e-22)
(1.99591 -0.0104 1.51644e-22)
(1.99575 -0.009446 1.57654e-22)
(1.99568 -0.00846937 -3.16372e-22)
(1.99569 -0.00749028 0)
(1.99577 -0.00652761 -3.29054e-22)
(1.99591 -0.00559777 -2.227e-24)
(1.9961 -0.00471479 3.31544e-22)
(1.99634 -0.00388932 -3.33761e-22)
(1.99662 -0.00312975 -2.49273e-24)
(1.99692 -0.00244113 -1.91643e-26)
(1.99723 -0.00182641 -5.00434e-22)
(1.99755 -0.00128627 3.32859e-22)
(1.99787 -0.000819597 -1.66224e-22)
(1.99818 -0.000423939 -1.65351e-22)
(1.99848 -9.57668e-05 -6.54108e-22)
(1.99876 0.000169252 1.95424e-21)
(1.99903 0.000375804 5.21599e-24)
(1.99927 0.000529127 2.5852e-21)
(1.9995 0.000634059 9.62364e-22)
(1.9997 0.000695641 -1.60865e-22)
(1.99988 0.000718917 -3.18281e-22)
(2.00004 0.000708695 -1.57938e-22)
(2.00017 0.00066974 1.57928e-22)
(2.00029 0.00060647 -1.57242e-22)
(2.00038 0.000522966 -1.56452e-22)
(2.00046 0.000423183 1.56453e-22)
(2.00051 0.000310938 3.21595e-25)
(2.00055 0.000190006 1.55912e-22)
(2.00057 6.36971e-05 0)
(2.00485 -0.000438848 0)
(2.00485 -0.00131729 0)
(2.00485 -0.00219755 0)
(2.00485 -0.00308128 -2.42252e-23)
(2.00484 -0.00396904 2.42145e-23)
(2.00484 -0.00486147 -2.72165e-23)
(2.00482 -0.00575852 2.72044e-23)
(2.0048 -0.00665966 0)
(2.00476 -0.00756366 0)
(2.0047 -0.00846814 3.70953e-23)
(2.00461 -0.00936984 -7.75057e-23)
(2.0045 -0.0102641 -3.21942e-24)
(2.00435 -0.0111468 1.98694e-22)
(2.00415 -0.0120073 6.335e-22)
(2.00392 -0.0128382 4.58901e-22)
(2.00363 -0.0136319 -4.59526e-22)
(2.00328 -0.0143755 -5.2836e-22)
(2.00288 -0.0150546 3.4207e-22)
(2.00242 -0.0156565 -3.04009e-22)
(2.0019 -0.0161627 -2.06866e-23)
(2.00132 -0.0165609 -7.44689e-22)
(2.00069 -0.0168369 1.52334e-21)
(2.00003 -0.0169769 -1.99905e-22)
(1.99934 -0.0169698 0)
(1.99864 -0.0168074 0)
(1.99794 -0.0164861 0)
(1.99727 -0.0160075 0)
(1.99664 -0.0153781 -1.35471e-22)
(1.99608 -0.01461 1.51454e-22)
(1.99559 -0.0137197 4.51089e-24)
(1.9952 -0.0127296 0)
(1.9949 -0.0116644 1.58176e-22)
(1.99471 -0.0105493 -1.58824e-22)
(1.99463 -0.0094106 1.65522e-22)
(1.99464 -0.00827288 3.3303e-22)
(1.99475 -0.0071589 -5.02652e-22)
(1.99494 -0.00608819 -3.37941e-22)
(1.99519 -0.00507703 1.66955e-22)
(1.9955 -0.00413748 0)
(1.99585 -0.00327857 1.68343e-22)
(1.99623 -0.00250534 -2.35916e-24)
(1.99662 -0.00182028 -2.03755e-24)
(1.99702 -0.00122311 -1.68779e-22)
(1.99742 -0.00071169 -3.34356e-22)
(1.9978 -0.000282297 4.98314e-22)
(1.99817 6.98747e-05 -1.31431e-21)
(1.99852 0.000350567 1.31284e-21)
(1.99884 0.000565384 -2.59622e-21)
(1.99914 0.000720703 2.90906e-21)
(1.99942 0.000822374 -9.64517e-22)
(1.99966 0.000876297 0)
(1.99988 0.000888253 1.58394e-22)
(2.00007 0.000863827 -1.58379e-22)
(2.00023 0.000808342 0)
(2.00037 0.000726598 0)
(2.00048 0.000623081 0)
(2.00057 0.000502164 0)
(2.00064 0.000367929 0)
(2.00069 0.000224439 0)
(2.00071 7.52173e-05 0)
(2.00577 -0.000477465 0)
(2.00576 -0.00143368 0)
(2.00577 -0.00239254 0)
(2.00577 -0.00335637 0)
(2.00578 -0.00432614 0)
(2.00578 -0.00530319 2.37599e-23)
(2.00577 -0.00628785 -4.94779e-23)
(2.00575 -0.00728005 2.57195e-23)
(2.00571 -0.0082789 -3.06884e-23)
(2.00565 -0.00928233 -3.02447e-24)
(2.00556 -0.0102872 3.36845e-23)
(2.00544 -0.0112884 0)
(2.00527 -0.0122818 -9.11863e-23)
(2.00506 -0.0132574 -3.07427e-22)
(2.00479 -0.0142044 2.07325e-21)
(2.00445 -0.0151151 -8.72937e-22)
(2.00405 -0.0159745 5.00848e-22)
(2.00357 -0.0167665 -2.34578e-24)
(2.00302 -0.0174758 3.77589e-22)
(2.00239 -0.0180805 -6.71593e-22)
(2.00169 -0.0185628 -1.40787e-21)
(2.00093 -0.0189058 -2.0957e-24)
(2.00011 -0.0190926 0)
(1.99926 -0.0191073 -2.29175e-22)
(1.99838 -0.0189389 -1.47214e-23)
(1.99751 -0.0185815 2.44166e-22)
(1.99667 -0.0180357 0)
(1.99589 -0.017309 0)
(1.99518 -0.0164158 -1.39636e-22)
(1.99458 -0.0153763 -2.98058e-22)
(1.99409 -0.0142184 3.17564e-22)
(1.99373 -0.0129731 -1.58971e-22)
(1.9935 -0.0116719 0)
(1.9934 -0.010347 -5.03115e-22)
(1.99343 -0.00902874 1.65391e-22)
(1.99358 -0.00774451 3.39609e-22)
(1.99383 -0.00651742 -3.44111e-22)
(1.99415 -0.00536613 1.71186e-22)
(1.99455 -0.00430413 1.707e-22)
(1.99499 -0.00334082 -5.19549e-22)
(1.99546 -0.00248084 -2.58601e-24)
(1.99595 -0.00172572 -2.20751e-24)
(1.99644 -0.00107384 1.68848e-22)
(1.99693 -0.000521459 -1.50341e-24)
(1.9974 -6.31556e-05 0)
(1.99785 0.000307439 8.88456e-24)
(1.99827 0.000597838 1.3193e-21)
(1.99866 0.000814759 -2.61224e-21)
(1.99902 0.00096594 1.64425e-22)
(1.99934 0.00105835 -1.61264e-22)
(1.99963 0.00109883 0)
(1.99989 0.00109398 1.58102e-22)
(2.00012 0.00105019 -1.58086e-22)
(2.00031 0.000973292 0)
(2.00047 0.000868454 0)
(2.00061 0.000740582 0)
(2.00071 0.000594419 1.54947e-22)
(2.00079 0.000434273 -1.54944e-22)
(2.00085 0.000264443 0)
(2.00087 8.8593e-05 0)
(2.00676 -0.000514898 0)
(2.00676 -0.00154655 0)
(2.00677 -0.00258191 0)
(2.00678 -0.00362398 0)
(2.00679 -0.00467436 0)
(2.0068 -0.00573515 -1.99779e-23)
(2.0068 -0.00680723 4.19056e-23)
(2.00679 -0.00789113 2.31462e-24)
(2.00676 -0.0089865 2.67113e-24)
(2.0067 -0.0100916 3.29765e-23)
(2.00662 -0.0112038 -9.31856e-23)
(2.00649 -0.0123179 -3.84343e-24)
(2.00631 -0.0134292 3.71601e-23)
(2.00608 -0.0145286 -9.37019e-23)
(2.00578 -0.0156039 -5.82497e-22)
(2.0054 -0.0166444 -6.37281e-22)
(2.00494 -0.0176343 -3.65705e-23)
(2.00438 -0.0185555 3.57737e-23)
(2.00373 -0.0193894 2.03773e-22)
(2.00299 -0.0201107 -9.80372e-22)
(2.00215 -0.0206953 -1.02903e-21)
(2.00123 -0.021122 -3.81914e-22)
(2.00023 -0.0213695 0)
(1.99919 -0.0214163 -2.31044e-22)
(1.99811 -0.0212469 -1.61078e-23)
(1.99704 -0.0208525 2.47477e-22)
(1.99599 -0.020232 1.37149e-22)
(1.99502 -0.0193937 0)
(1.99414 -0.0183549 3.0413e-22)
(1.99339 -0.0171403 -4.7501e-22)
(1.99279 -0.0157853 1.5874e-22)
(1.99235 -0.0143288 -3.35784e-22)
(1.99208 -0.0128102 5.058e-22)
(1.99198 -0.0112697 4.75205e-24)
(1.99204 -0.00974452 -1.75339e-22)
(1.99224 -0.00826765 1.73917e-22)
(1.99256 -0.00686629 0)
(1.99298 -0.00556173 0)
(1.99348 -0.0043686 -1.77449e-22)
(1.99403 -0.00329632 3.49055e-22)
(1.99462 -0.00234851 1.73247e-22)
(1.99522 -0.00152514 -2.36433e-24)
(1.99582 -0.000822495 -3.45439e-22)
(1.99641 -0.000234737 -5.07778e-22)
(1.99698 0.00024592 2.02775e-21)
(1.99751 0.000627925 -1.32855e-21)
(1.99802 0.000920447 6.56692e-22)
(1.99848 0.00113176 1.95622e-21)
(1.9989 0.0012714 -2.26826e-21)
(1.99928 0.00134742 -3.22655e-22)
(1.99963 0.00136769 0)
(1.99993 0.00133978 -1.57702e-22)
(2.00019 0.00127077 1.57693e-22)
(2.00042 0.00116694 0)
(2.0006 0.00103389 1.55195e-22)
(2.00076 0.0008769 -1.55186e-22)
(2.00088 0.000701022 0)
(2.00097 0.000510708 0)
(2.00103 0.000310432 0)
(2.00106 0.000103967 0)
(2.00783 -0.00055075 0)
(2.00783 -0.00165477 0)
(2.00785 -0.00276373 0)
(2.00787 -0.00388144 0)
(2.00789 -0.00501025 0)
(2.00791 -0.00615316 0)
(2.00792 -0.0073117 -1.78057e-23)
(2.00793 -0.00848728 -2.29488e-24)
(2.00791 -0.00968018 -2.53995e-23)
(2.00787 -0.0108894 1.96795e-23)
(2.00779 -0.0121128 -3.26714e-23)
(2.00766 -0.0133455 5.83971e-23)
(2.00748 -0.0145825 -7.48354e-23)
(2.00723 -0.0158153 -9.65008e-24)
(2.00691 -0.017031 7.9814e-22)
(2.00648 -0.0182162 -2.13368e-22)
(2.00596 -0.0193542 -4.75474e-22)
(2.00533 -0.0204243 -9.5203e-23)
(2.00458 -0.0214038 -2.95003e-23)
(2.0037 -0.0222639 9.07378e-22)
(2.00271 -0.0229734 5.31581e-23)
(2.00161 -0.0235055 -1.97199e-22)
(2.00041 -0.0238324 3.00339e-22)
(1.99914 -0.0239255 1.12381e-22)
(1.99782 -0.0237633 0)
(1.9965 -0.0233321 1.31338e-22)
(1.99521 -0.0226286 -1.37045e-22)
(1.99401 -0.0216613 3.01041e-22)
(1.99293 -0.0204512 -4.47623e-22)
(1.992 -0.0190293 4.86519e-22)
(1.99127 -0.0174401 -1.64097e-22)
(1.99075 -0.0157334 3.47502e-22)
(1.99044 -0.0139587 -1.75033e-22)
(1.99034 -0.0121667 5.41085e-22)
(1.99043 -0.0104028 2.6726e-24)
(1.9907 -0.00870691 -5.46924e-22)
(1.99112 -0.00711091 -3.63293e-22)
(1.99166 -0.00563881 3.63466e-22)
(1.99229 -0.00430605 0)
(1.99297 -0.00312125 1.7756e-22)
(1.99369 -0.00208628 -1.79183e-22)
(1.99443 -0.00119855 -1.7957e-22)
(1.99516 -0.000451383 -4.03404e-24)
(1.99586 0.000163969 0)
(1.99654 0.000658492 1.36927e-21)
(1.99718 0.00104265 -2.68617e-21)
(1.99777 0.00132769 -9.97709e-22)
(1.99831 0.00152416 -3.29436e-22)
(1.99881 0.00164344 1.61293e-22)
(1.99925 0.00169472 -1.12231e-21)
(1.99964 0.00168706 4.77939e-22)
(1.99999 0.001629 -1.58381e-22)
(2.00029 0.00152817 0)
(2.00055 0.00139133 0)
(2.00077 0.00122448 0)
(2.00094 0.00103322 -1.53761e-22)
(2.00108 0.000822818 4.89813e-25)
(2.00119 0.000597812 1.53284e-22)
(2.00125 0.000362749 0)
(2.00128 0.000121455 0)
(2.00896 -0.000584502 -6.51149e-24)
(2.00897 -0.00175687 6.52932e-24)
(2.009 -0.00293564 0)
(2.00903 -0.00412538 -8.58917e-24)
(2.00906 -0.00532947 8.58387e-24)
(2.0091 -0.0065519 0)
(2.00913 -0.00779514 1.33244e-23)
(2.00916 -0.00906156 2.25524e-24)
(2.00916 -0.0103523 -3.37494e-23)
(2.00914 -0.0116673 -2.4228e-23)
(2.00907 -0.0130054 1.77353e-23)
(2.00896 -0.0143623 2.4626e-23)
(2.00878 -0.015733 0)
(2.00853 -0.0171093 0)
(2.00818 -0.0184787 -1.01833e-22)
(2.00772 -0.0198249 -2.83809e-22)
(2.00715 -0.0211311 4.14822e-22)
(2.00643 -0.0223729 -3.71427e-22)
(2.00557 -0.0235237 -3.14067e-23)
(2.00456 -0.0245503 5.79821e-22)
(2.0034 -0.025413 2.39082e-21)
(2.00209 -0.0260786 -3.91121e-22)
(2.00066 -0.0265097 2.78416e-22)
(1.99912 -0.0266691 1.03084e-22)
(1.99752 -0.0265264 0)
(1.9959 -0.0260609 -1.31206e-22)
(1.99432 -0.0252653 0)
(1.99284 -0.0241482 1.55421e-22)
(1.99151 -0.0227351 7.71069e-24)
(1.99038 -0.0210648 -6.67795e-22)
(1.98949 -0.0191946 1.06104e-21)
(1.98887 -0.0171882 8.70299e-24)
(1.98851 -0.0151093 -3.61674e-22)
(1.98842 -0.0130211 7.25825e-24)
(1.98858 -0.0109802 -1.83913e-22)
(1.98895 -0.00903444 5.59794e-22)
(1.98949 -0.00722102 0)
(1.99018 -0.00556646 0)
(1.99097 -0.00408629 -3.68115e-22)
(1.99182 -0.00278736 4.2386e-24)
(1.9927 -0.00166851 7.25846e-22)
(1.99359 -0.000723192 -5.20003e-24)
(1.99446 5.9219e-05 -4.09893e-24)
(1.9953 0.000691363 1.39227e-21)
(1.9961 0.00118824 -8.19905e-21)
(1.99685 0.0015627 3.35746e-21)
(1.99754 0.00182879 6.58241e-22)
(1.99817 0.00199963 0)
(1.99873 0.00208821 0)
(1.99924 0.00210509 6.41345e-22)
(1.99969 0.00206078 1.57871e-22)
(2.00009 0.00196454 -1.57838e-22)
(2.00043 0.00182461 0)
(2.00072 0.00164813 -1.54295e-22)
(2.00096 0.00144148 1.54283e-22)
(2.00116 0.00121049 0)
(2.00132 0.000960479 0)
(2.00143 0.000696016 1.51861e-22)
(2.00151 0.000421636 -1.51876e-22)
(2.00155 0.000141141 0)
(2.01017 -0.000615658 0)
(2.01018 -0.00185126 0)
(2.01021 -0.00309483 2.99314e-24)
(2.01026 -0.00435197 -2.99121e-24)
(2.01031 -0.00562712 0)
(2.01037 -0.0069253 0)
(2.01043 -0.00825033 -8.49065e-24)
(2.01048 -0.00960559 -2.19126e-24)