/*--------------------------------*- C++ -*----------------------------------*\
  =========                 |
  \\      /  F ield         | OpenFOAM: The Open Source CFD Toolbox
   \\    /   O peration     | Website:  https://openfoam.org
    \\  /    A nd           | Version:  12
     \\/     M anipulation  |
\*---------------------------------------------------------------------------*/
FoamFile
{
    format      ascii;
    class       volScalarField;
    location    "300";
    object      k;
}
// * * * * * * * * * * * * * * * * * * * * * * * * * * * * * * * * * * * * * //

dimensions      [0 2 -2 0 0 0 0];

internalField   nonuniform List<scalar> 
16227
(
0.00914646
0.00914648
0.00914647
0.00914651
0.0091465
0.00914654
0.00914653
0.00914651
0.00914651
0.00914653
0.00914657
0.00914659
0.00914665
0.00914665
0.00914665
0.00914665
0.00914665
0.00914665
0.00914665
0.00914665
0.00914665
0.00914665
0.00914665
0.00914665
0.00914665
0.00914665
0.00914665
0.00914666
0.00914667
0.00914664
0.00914665
0.00914665
0.00914665
0.00914665
0.00914665
0.00914665
0.00914665
0.00914665
0.00914665
0.00914665
0.00914665
0.00914665
0.00914665
0.00914665
0.00914665
0.00914665
0.00914665
0.00914663
0.00914662
0.00914662
0.00914662
0.00914661
0.00914654
0.00914654
0.00914649
0.00914649
0.00914651
0.00914649
0.00914647
0.00914646
0.00848121
0.00848124
0.00848123
0.00848126
0.00848127
0.0084813
0.00848129
0.00848126
0.00848127
0.00848129
0.00848134
0.00848136
0.0084815
0.00848156
0.00848158
0.00848158
0.00848158
0.00848158
0.00848157
0.00848157
0.00848159
0.0084816
0.0084816
0.0084816
0.0084816
0.00848161
0.00848161
0.0084816
0.00848158
0.00848153
0.00848159
0.00848161
0.00848161
0.00848161
0.00848161
0.0084816
0.00848159
0.00848159
0.00848159
0.00848159
0.00848159
0.00848159
0.00848159
0.00848158
0.00848158
0.00848156
0.00848156
0.00848156
0.00848157
0.00848155
0.00848152
0.00848147
0.00848135
0.00848134
0.0084813
0.00848128
0.00848132
0.00848124
0.00848125
0.00848122
0.00790072
0.00790074
0.00790074
0.00790076
0.00790075
0.00790084
0.0079008
0.00790078
0.00790079
0.0079008
0.00790085
0.00790086
0.00790111
0.00790118
0.00790119
0.0079012
0.0079012
0.00790119
0.00790122
0.00790116
0.0079012
0.00790121
0.00790121
0.00790121
0.00790121
0.00790121
0.00790121
0.00790123
0.00790122
0.00790115
0.00790121
0.00790123
0.00790124
0.00790124
0.00790125
0.00790125
0.00790126
0.00790125
0.00790124
0.00790124
0.00790125
0.00790125
0.00790124
0.00790123
0.00790123
0.00790123
0.00790122
0.00790123
0.00790122
0.00790119
0.00790115
0.00790096
0.00790088
0.00790086
0.00790085
0.00790084
0.00790087
0.00790078
0.00790079
0.00790077
0.00739017
0.00739019
0.00739019
0.00739021
0.00739021
0.00739028
0.00739028
0.00739024
0.00739025
0.00739024
0.00739029
0.00739034
0.00739061
0.00739068
0.0073907
0.00739071
0.00739072
0.00739073
0.00739067
0.00739054
0.00739066
0.0073907
0.0073907
0.00739071
0.00739072
0.00739073
0.00739073
0.00739073
0.00739072
0.00739064
0.00739072
0.00739075
0.00739076
0.00739077
0.00739078
0.00739079
0.00739081
0.00739081
0.00739082
0.00739082
0.00739083
0.00739083
0.00739082
0.00739083
0.00739083
0.00739082
0.00739083
0.00739082
0.00739082
0.00739079
0.00739067
0.00739047
0.00739037
0.00739039
0.00739039
0.00739041
0.00739038
0.00739031
0.00739031
0.00739029
0.00693797
0.00693799
0.00693799
0.00693801
0.00693801
0.00693807
0.0069381
0.00693803
0.00693804
0.00693804
0.00693807
0.00693813
0.00693837
0.0069385
0.00693852
0.00693852
0.00693852
0.0069385
0.00693829
0.00693822
0.00693842
0.00693849
0.00693849
0.00693849
0.00693849
0.00693849
0.0069385
0.00693851
0.0069385
0.00693842
0.00693852
0.00693857
0.00693859
0.00693861
0.00693862
0.00693865
0.00693867
0.0069387
0.00693871
0.00693872
0.00693874
0.00693876
0.00693876
0.00693876
0.00693877
0.00693878
0.00693878
0.00693878
0.00693877
0.00693869
0.00693844
0.00693833
0.00693825
0.00693828
0.0069383
0.00693835
0.00693828
0.00693821
0.00693821
0.00693819
0.00653491
0.00653494
0.00653493
0.00653494
0.00653494
0.00653498
0.00653502
0.00653497
0.00653494
0.00653493
0.00653494
0.00653497
0.00653508
0.00653536
0.00653542
0.00653543
0.00653543
0.00653532
0.00653509
0.00653505
0.00653528
0.00653534
0.00653534
0.00653533
0.00653534
0.00653535
0.00653536
0.00653537
0.00653537
0.0065353
0.00653541
0.00653546
0.00653551
0.00653554
0.00653558
0.00653562
0.00653566
0.00653569
0.00653572
0.00653575
0.00653578
0.0065358
0.00653582
0.00653585
0.00653585
0.00653586
0.00653587
0.00653587
0.00653587
0.00653572
0.00653548
0.00653536
0.00653532
0.00653537
0.00653541
0.0065354
0.00653534
0.00653528
0.00653528
0.00653526
0.0061736
0.00617361
0.0061736
0.00617361
0.00617361
0.00617364
0.00617368
0.00617365
0.0061736
0.00617358
0.00617356
0.00617355
0.00617365
0.0061739
0.00617403
0.00617404
0.00617401
0.00617371
0.00617359
0.00617359
0.00617382
0.00617388
0.00617387
0.00617387
0.00617387
0.00617388
0.00617389
0.00617391
0.00617392
0.00617385
0.00617399
0.00617406
0.00617411
0.00617418
0.00617424
0.0061743
0.00617435
0.00617442
0.00617447
0.00617453
0.00617456
0.0061746
0.00617464
0.00617466
0.00617469
0.00617471
0.00617472
0.00617473
0.00617466
0.00617439
0.00617425
0.00617417
0.00617417
0.00617423
0.00617424
0.00617423
0.00617418
0.00617412
0.00617413
0.00617411
0.00584802
0.00584802
0.00584802
0.00584803
0.00584801
0.00584803
0.00584806
0.00584804
0.00584799
0.00584794
0.0058479
0.00584785
0.00584788
0.005848
0.00584827
0.00584835
0.00584827
0.00584793
0.00584782
0.00584782
0.00584805
0.0058481
0.00584809
0.00584808
0.00584807
0.00584808
0.00584811
0.00584813
0.00584814
0.00584809
0.00584825
0.00584835
0.00584844
0.00584852
0.0058486
0.00584869
0.00584878
0.00584886
0.00584894
0.00584901
0.00584909
0.00584914
0.00584919
0.00584924
0.00584928
0.0058493
0.00584932
0.00584932
0.00584919
0.00584894
0.00584881
0.00584877
0.00584881
0.00584885
0.00584884
0.00584883
0.00584879
0.00584874
0.00584874
0.00584872
0.00555326
0.00555325
0.00555325
0.00555324
0.00555323
0.00555324
0.00555325
0.00555322
0.00555319
0.00555312
0.00555305
0.00555297
0.00555296
0.00555303
0.00555336
0.00555343
0.00555327
0.00555294
0.00555284
0.00555282
0.00555304
0.00555308
0.00555305
0.00555303
0.00555303
0.00555304
0.00555307
0.00555311
0.00555314
0.00555309
0.00555327
0.0055534
0.00555352
0.00555364
0.00555375
0.00555387
0.00555399
0.00555411
0.00555422
0.00555431
0.00555441
0.0055545
0.00555457
0.00555463
0.00555468
0.00555473
0.00555475
0.00555469
0.00555442
0.00555429
0.00555421
0.00555424
0.00555426
0.00555429
0.00555428
0.00555428
0.00555424
0.00555419
0.00555419
0.00555418
0.00528523
0.00528523
0.00528522
0.00528521
0.00528518
0.00528518
0.00528519
0.00528514
0.0052851
0.00528504
0.00528494
0.00528483
0.00528481
0.00528487
0.00528511
0.00528518
0.00528484
0.00528463
0.00528454
0.00528452
0.00528472
0.00528475
0.00528471
0.00528468
0.00528468
0.00528469
0.00528472
0.00528477
0.00528481
0.0052848
0.00528501
0.00528516
0.00528531
0.00528546
0.00528562
0.00528578
0.00528593
0.00528609
0.00528624
0.00528637
0.00528649
0.00528659
0.0052867
0.00528678
0.00528685
0.00528691
0.00528694
0.00528685
0.00528657
0.00528646
0.00528644
0.00528645
0.00528647
0.0052865
0.0052865
0.0052865
0.00528645
0.00528642
0.00528641
0.00528641
0.00504056
0.00504056
0.00504054
0.00504052
0.0050405
0.00504048
0.00504047
0.00504041
0.00504035
0.00504027
0.00504019
0.00504004
0.00503994
0.00503994
0.00504
0.00504018
0.00503986
0.00503967
0.00503957
0.00503953
0.00503965
0.0050397
0.00503967
0.00503963
0.00503961
0.00503963
0.00503966
0.00503972
0.00503979
0.00503979
0.00504003
0.00504023
0.00504041
0.00504061
0.00504081
0.00504102
0.00504122
0.00504141
0.0050416
0.00504178
0.00504193
0.00504207
0.00504219
0.00504229
0.00504238
0.00504244
0.00504241
0.00504227
0.00504211
0.00504203
0.00504202
0.00504204
0.00504205
0.00504209
0.00504209
0.00504208
0.00504205
0.005042
0.00504201
0.005042
0.00481638
0.00481638
0.00481636
0.00481634
0.0048163
0.00481628
0.00481624
0.00481618
0.00481609
0.004816
0.00481589
0.00481575
0.0048156
0.00481553
0.00481553
0.00481565
0.00481538
0.00481519
0.00481505
0.00481497
0.00481493
0.00481507
0.00481506
0.00481501
0.00481499
0.004815
0.00481504
0.00481512
0.0048152
0.00481524
0.00481552
0.00481575
0.00481598
0.00481623
0.00481648
0.00481674
0.00481698
0.00481723
0.00481745
0.00481767
0.00481787
0.00481804
0.00481819
0.00481833
0.00481842
0.00481846
0.00481833
0.00481828
0.00481819
0.00481812
0.00481813
0.00481815
0.00481816
0.00481819
0.00481819
0.00481819
0.00481816
0.00481812
0.00481812
0.00481811
0.00461029
0.00461029
0.00461026
0.00461023
0.00461019
0.00461015
0.0046101
0.00461002
0.00460992
0.0046098
0.00460968
0.00460951
0.00460935
0.00460918
0.00460908
0.00460901
0.00460892
0.00460876
0.00460859
0.00460846
0.00460836
0.00460851
0.00460849
0.00460843
0.00460839
0.0046084
0.00460845
0.00460854
0.00460865
0.00460872
0.00460904
0.00460932
0.0046096
0.00460991
0.00461021
0.00461053
0.00461083
0.00461113
0.00461142
0.00461167
0.00461191
0.00461212
0.0046123
0.00461246
0.00461256
0.00461258
0.00461247
0.00461247
0.00461238
0.00461233
0.00461234
0.00461236
0.00461238
0.0046124
0.00461241
0.0046124
0.00461237
0.00461234
0.00461234
0.00461233
0.00442024
0.00442024
0.00442021
0.00442017
0.00442012
0.00442006
0.00441999
0.0044199
0.00441978
0.00441965
0.00441949
0.0044193
0.00441911
0.00441892
0.00441872
0.0044186
0.00441852
0.00441834
0.00441814
0.00441797
0.00441783
0.00441795
0.0044179
0.00441782
0.00441778
0.00441778
0.00441784
0.00441795
0.00441808
0.00441819
0.00441854
0.00441888
0.00441923
0.00441959
0.00441997
0.00442034
0.00442072
0.00442107
0.00442141
0.00442173
0.004422
0.00442225
0.00442246
0.00442263
0.00442269
0.00442267
0.00442268
0.00442268
0.00442262
0.0044226
0.00442261
0.00442263
0.00442265
0.00442267
0.00442267
0.00442267
0.00442264
0.00442261
0.00442261
0.0044226
0.00424447
0.00424447
0.00424443
0.00424438
0.00424432
0.00424426
0.00424417
0.00424406
0.00424392
0.00424376
0.00424358
0.00424336
0.00424314
0.00424291
0.00424269
0.00424252
0.0042424
0.00424218
0.00424193
0.00424172
0.00424154
0.00424161
0.00424154
0.00424143
0.00424138
0.00424138
0.00424144
0.00424156
0.00424173
0.00424188
0.00424229
0.00424269
0.0042431
0.00424353
0.00424398
0.00424443
0.00424487
0.0042453
0.0042457
0.00424606
0.00424639
0.00424668
0.00424692
0.00424707
0.00424706
0.00424713
0.00424718
0.0042472
0.00424717
0.00424715
0.00424718
0.0042472
0.00424721
0.00424723
0.00424723
0.00424723
0.00424719
0.00424717
0.00424716
0.00424715
0.00408147
0.00408146
0.00408142
0.00408137
0.00408129
0.00408122
0.00408112
0.00408098
0.00408083
0.00408064
0.00408043
0.00408019
0.00407993
0.00407967
0.00407941
0.0040792
0.00407902
0.00407876
0.00407846
0.0040782
0.00407798
0.00407795
0.00407788
0.00407776
0.00407768
0.00407768
0.00407774
0.00407789
0.00407808
0.00407828
0.00407874
0.00407921
0.0040797
0.00408021
0.00408074
0.00408128
0.0040818
0.0040823
0.00408276
0.00408318
0.00408356
0.00408389
0.00408416
0.00408429
0.00408432
0.0040844
0.00408447
0.00408447
0.00408447
0.00408449
0.00408452
0.00408454
0.00408456
0.00408457
0.00408457
0.00408456
0.00408453
0.0040845
0.0040845
0.00408448
0.00392993
0.00392992
0.00392988
0.00392981
0.00392973
0.00392964
0.00392952
0.00392937
0.00392919
0.00392898
0.00392875
0.00392846
0.00392818
0.00392787
0.00392757
0.00392731
0.00392709
0.00392677
0.00392642
0.00392608
0.0039258
0.0039256
0.0039256
0.00392548
0.00392539
0.00392537
0.00392544
0.0039256
0.00392584
0.00392608
0.00392661
0.00392715
0.00392773
0.00392833
0.00392896
0.00392958
0.00393019
0.00393077
0.0039313
0.00393179
0.00393222
0.00393258
0.0039328
0.00393293
0.00393305
0.00393318
0.00393327
0.00393327
0.00393327
0.00393331
0.00393334
0.00393336
0.00393337
0.00393338
0.00393338
0.00393336
0.00393333
0.0039333
0.00393329
0.00393328
0.00378872
0.0037887
0.00378865
0.00378858
0.00378849
0.00378839
0.00378825
0.00378808
0.00378788
0.00378764
0.00378738
0.00378707
0.00378674
0.0037864
0.00378604
0.00378573
0.00378546
0.00378509
0.00378468
0.00378428
0.00378392
0.00378362
0.0037836
0.00378347
0.00378335
0.00378331
0.00378339
0.00378357
0.00378384
0.00378415
0.00378474
0.00378538
0.00378605
0.00378676
0.00378749
0.00378821
0.00378892
0.00378958
0.0037902
0.00379074
0.00379122
0.00379158
0.00379175
0.00379196
0.00379215
0.00379231
0.0037924
0.00379241
0.00379243
0.00379247
0.0037925
0.00379251
0.00379251
0.00379252
0.00379251
0.00379248
0.00379245
0.00379242
0.00379241
0.0037924
0.00365684
0.00365681
0.00365676
0.00365668
0.00365658
0.00365646
0.00365632
0.00365612
0.0036559
0.00365564
0.00365535
0.003655
0.00365463
0.00365425
0.00365384
0.00365348
0.00365314
0.00365271
0.00365224
0.00365177
0.00365135
0.003651
0.00365086
0.00365072
0.00365057
0.00365052
0.00365059
0.00365079
0.00365111
0.00365148
0.00365216
0.00365289
0.00365367
0.0036545
0.00365535
0.00365619
0.003657
0.00365776
0.00365844
0.00365905
0.00365957
0.00365995
0.00366015
0.0036604
0.00366062
0.00366078
0.00366085
0.00366088
0.00366092
0.00366097
0.00366099
0.00366099
0.00366099
0.00366099
0.00366097
0.00366094
0.0036609
0.00366087
0.00366086
0.00366085
0.00353341
0.00353339
0.00353333
0.00353325
0.00353313
0.003533
0.00353284
0.00353263
0.00353238
0.0035321
0.00353177
0.0035314
0.00353099
0.00353056
0.00353011
0.00352967
0.00352925
0.00352877
0.00352824
0.00352771
0.00352719
0.00352676
0.00352643
0.00352633
0.00352618
0.00352611
0.00352617
0.0035264
0.00352677
0.00352722
0.00352799
0.00352884
0.00352975
0.00353071
0.00353169
0.00353265
0.00353357
0.00353442
0.00353517
0.0035358
0.00353633
0.00353672
0.00353705
0.00353734
0.00353759
0.00353774
0.0035378
0.00353784
0.0035379
0.00353793
0.00353794
0.00353794
0.00353793
0.00353791
0.00353788
0.00353785
0.00353781
0.00353777
0.00353776
0.00353774
0.00341768
0.00341766
0.0034176
0.00341751
0.00341738
0.00341724
0.00341706
0.00341683
0.00341657
0.00341625
0.0034159
0.0034155
0.00341505
0.00341457
0.00341405
0.00341352
0.00341302
0.00341251
0.00341192
0.00341132
0.00341073
0.00341019
0.00340975
0.00340962
0.00340943
0.00340933
0.00340939
0.00340964
0.00341006
0.00341059
0.00341147
0.00341246
0.00341352
0.00341463
0.00341576
0.00341686
0.0034179
0.00341882
0.00341963
0.00342033
0.00342084
0.00342129
0.00342169
0.00342203
0.00342226
0.00342238
0.00342245
0.00342252
0.00342257
0.00342259
0.00342259
0.00342257
0.00342255
0.00342252
0.00342249
0.00342245
0.00342239
0.00342236
0.00342234
0.00342232
0.00330897
0.00330894
0.00330888
0.00330879
0.00330865
0.0033085
0.0033083
0.00330806
0.00330777
0.00330744
0.00330705
0.00330662
0.00330614
0.00330561
0.00330504
0.00330444
0.00330386
0.00330329
0.00330262
0.00330193
0.00330125
0.00330063
0.00330011
0.00329987
0.00329964
0.00329951
0.00329956
0.00329984
0.00330032
0.00330096
0.00330197
0.00330311
0.00330434
0.00330563
0.00330692
0.00330817
0.0033093
0.0033103
0.00331119
0.00331194
0.0033125
0.003313
0.00331343
0.00331377
0.00331398
0.00331409
0.00331416
0.00331423
0.00331426
0.00331427
0.00331426
0.00331422
0.00331418
0.00331414
0.00331409
0.00331404
0.00331399
0.00331394
0.00331392
0.0033139
0.00320668
0.00320665
0.00320658
0.00320648
0.00320634
0.00320617
0.00320597
0.00320571
0.0032054
0.00320505
0.00320464
0.00320417
0.00320365
0.00320308
0.00320246
0.0032018
0.00320114
0.00320047
0.00319975
0.00319897
0.0031982
0.00319748
0.00319688
0.00319645
0.00319632
0.00319614
0.00319618
0.0031965
0.00319706
0.00319781
0.00319897
0.00320031
0.00320173
0.00320321
0.00320469
0.0032061
0.00320722
0.00320829
0.00320919
0.00320999
0.00321065
0.0032112
0.00321163
0.00321193
0.00321211
0.00321222
0.00321231
0.00321236
0.00321238
0.00321236
0.00321233
0.00321228
0.00321222
0.00321216
0.0032121
0.00321204
0.00321198
0.00321193
0.0032119
0.00321188
0.00311026
0.00311023
0.00311016
0.00311005
0.00310991
0.00310973
0.00310952
0.00310925
0.00310892
0.00310855
0.00310812
0.00310762
0.00310706
0.00310645
0.00310578
0.00310505
0.00310429
0.00310352
0.00310274
0.00310191
0.00310105
0.00310023
0.00309954
0.00309915
0.00314594
0.00314581
0.00314585
0.00314617
0.00314679
0.00314761
0.00314886
0.0031503
0.00315184
0.00315344
0.00315503
0.00315652
0.00311201
0.00311233
0.00311327
0.0031141
0.0031148
0.00311536
0.00311576
0.003116
0.00311616
0.00311628
0.00311635
0.00311638
0.00311637
0.00311633
0.00311627
0.0031162
0.00311612
0.00311605
0.00311597
0.0031159
0.00311583
0.00311577
0.00311574
0.00311571
0.00301925
0.00301922
0.00301915
0.00301904
0.00301889
0.0030187
0.00301848
0.0030182
0.00301786
0.00301747
0.00301701
0.00301649
0.00301591
0.00301526
0.00301454
0.00301375
0.00301291
0.00301204
0.00301116
0.00301029
0.00300935
0.00300847
0.00300786
0.00305167
0.00304967
0.00304967
0.00304968
0.00305005
0.00305078
0.00305177
0.00305323
0.00305492
0.00305672
0.00305857
0.00306039
0.00306196
0.00306537
0.00302275
0.00302301
0.00302382
0.00302449
0.00302501
0.00302536
0.00302556
0.00302568
0.00302577
0.00302581
0.00302581
0.00302576
0.00302569
0.00302561
0.00302551
0.00302541
0.00302531
0.00302522
0.00302514
0.00302505
0.00302499
0.00302495
0.00302493
0.00293322
0.00293318
0.00293311
0.002933
0.00293285
0.00293266
0.00293242
0.00293213
0.00293179
0.00293138
0.00293091
0.00293037
0.00292976
0.00292907
0.00292832
0.00292748
0.00292658
0.00292563
0.00292467
0.00292371
0.00292272
0.00292182
0.00292128
0.00296092
0.00295914
0.00298104
0.00298106
0.0029815
0.00298235
0.00298349
0.00298512
0.00298698
0.00298897
0.00299102
0.00299304
0.00297373
0.00297647
0.00293834
0.00293797
0.00293868
0.00293928
0.0029397
0.00293996
0.00294011
0.00294022
0.00294027
0.00294026
0.00294021
0.00294012
0.00294001
0.00293989
0.00293977
0.00293964
0.00293953
0.00293942
0.00293932
0.00293923
0.00293916
0.00293911
0.00293908
0.00285178
0.00285174
0.00285167
0.00285155
0.0028514
0.00285121
0.00285097
0.00285067
0.00285032
0.00284991
0.00284943
0.00284886
0.00284823
0.00284753
0.00284674
0.00284587
0.00284491
0.0028439
0.00284285
0.00284181
0.00284078
0.00283994
0.00283957
0.00287529
0.00287393
0.00289357
0.00289386
0.00289457
0.0028957
0.0028971
0.00289881
0.00290077
0.00290291
0.00290519
0.00290745
0.00289147
0.0028929
0.00285889
0.00285785
0.00285833
0.00285877
0.00285905
0.00285922
0.00285933
0.00285938
0.00285936
0.00285929
0.00285919
0.00285906
0.00285891
0.00285875
0.0028586
0.00285845
0.00285831
0.00285818
0.00285807
0.00285796
0.00285788
0.00285783
0.0028578
0.00277459
0.00277454
0.00277447
0.00277436
0.0027742
0.00277401
0.00277377
0.00277348
0.00277312
0.0027727
0.00277221
0.00277164
0.002771
0.00277028
0.00276947
0.00276857
0.00276759
0.00276653
0.00276542
0.00276431
0.00276325
0.00276253
0.00276245
0.00279467
0.00279382
0.00281096
0.00281217
0.00281379
0.00281574
0.00281768
0.00281946
0.00282116
0.00282303
0.00282514
0.00282753
0.00281455
0.00281455
0.00278411
0.00278234
0.00278243
0.00278264
0.00278277
0.00278283
0.00278285
0.0027828
0.0027827
0.00278256
0.0027824
0.00278221
0.00278202
0.00278183
0.00278164
0.00278146
0.0027813
0.00278116
0.00278102
0.00278091
0.00278082
0.00278076
0.00278073
0.00270133
0.00270128
0.00270121
0.0027011
0.00270094
0.00270075
0.00270052
0.00270022
0.00269987
0.00269945
0.00269896
0.00269839
0.00269775
0.00269702
0.0026962
0.00269529
0.00269429
0.00269323
0.0026921
0.00269097
0.00268992
0.00268935
0.0026896
0.00271881
0.00271892
0.00273343
0.00273675
0.00274102
0.0027456
0.0027494
0.00275119
0.00275135
0.00275125
0.00275175
0.00275325
0.00274337
0.0027413
0.00271372
0.00271115
0.00271067
0.00271062
0.00271054
0.00271046
0.00271033
0.00271017
0.00270997
0.00270975
0.00270952
0.00270928
0.00270904
0.00270881
0.00270858
0.00270838
0.00270819
0.00270803
0.00270788
0.00270775
0.00270765
0.00270759
0.00270755
0.00263171
0.00263167
0.00263159
0.00263149
0.00263134
0.00263116
0.00263092
0.00263063
0.00263029
0.00262987
0.00262939
0.00262883
0.00262819
0.00262747
0.00262666
0.00262576
0.00262477
0.00262372
0.00262263
0.00262154
0.00262062
0.0026202
0.0026208
0.00264765
0.00264907
0.00266171
0.00267076
0.0026817
0.00269588
0.00270798
0.00271016
0.0027029
0.00269379
0.00268774
0.00268523
0.00267798
0.00267308
0.00264747
0.00264413
0.00264289
0.00264245
0.00264209
0.00264178
0.00264148
0.00264118
0.00264087
0.00264057
0.00264026
0.00263996
0.00263967
0.00263939
0.00263914
0.0026389
0.00263869
0.0026385
0.00263834
0.0026382
0.0026381
0.00263803
0.00263798
0.00256549
0.00256544
0.00256537
0.00256527
0.00256513
0.00256495
0.00256473
0.00256445
0.00256411
0.00256372
0.00256325
0.0025627
0.00256208
0.00256138
0.00256059
0.00255972
0.00255877
0.00255777
0.00255675
0.00255578
0.0025551
0.00255485
0.00255592
0.00258125
0.00258405
0.00259908
0.00262032
0.00265245
0.00270912
0.00277086
0.002777
0.00272522
0.00267166
0.00264019
0.00262553
0.00261809
0.00260992
0.00258505
0.00258102
0.0025788
0.00257784
0.00257709
0.00257651
0.00257602
0.00257557
0.00257514
0.00257474
0.00257436
0.002574
0.00257365
0.00257334
0.00257304
0.00257277
0.00257254
0.00257233
0.00257216
0.00257201
0.00257189
0.00257182
0.00257177
0.00250243
0.00250238
0.00250231
0.00250222
0.00250208
0.00250192
0.0025017
0.00250144
0.00250112
0.00250074
0.0025003
0.00249978
0.00249919
0.00249852
0.00249777
0.00249695
0.00249607
0.00249515
0.00249427
0.00249347
0.00249316
0.00249307
0.0024951
0.00252001
0.00252425
0.00254987
0.00259621
0.00270243
0.00286979
0.00301924
0.00303706
0.00291917
0.00275796
0.00262791
0.00257927
0.00256231
0.00255191
0.00252618
0.0025215
0.00251809
0.00251647
0.00251527
0.0025144
0.00251368
0.00251307
0.00251252
0.00251202
0.00251157
0.00251114
0.00251075
0.00251039
0.00251006
0.00250976
0.00250951
0.00250928
0.00250909
0.00250893
0.0025088
0.00250872
0.00250867
0.0024423
0.00244226
0.00244219
0.00244211
0.00244198
0.00244183
0.00244163
0.00244138
0.00244109
0.00244073
0.00244032
0.00243984
0.00243929
0.00243867
0.00243799
0.00243724
0.00243645
0.00243567
0.00243496
0.00243443
0.00243455
0.00243466
0.00243842
0.0024641
0.00247146
0.0025158
0.00260597
0.00284735
0.00322159
0.00408477
0.00406588
0.00341186
0.00296319
0.00269187
0.002555
0.00250911
0.00249927
0.00247028
0.00246513
0.00246042
0.00245805
0.00245636
0.00245517
0.00245423
0.00245345
0.00245278
0.00245219
0.00245165
0.00245117
0.00245073
0.00245032
0.00244997
0.00244964
0.00244937
0.00244912
0.00244892
0.00244875
0.00244862
0.00244853
0.00244848
0.00238493
0.00238488
0.00238482
0.00238474
0.00238463
0.00238449
0.00238431
0.00238409
0.00238382
0.0023835
0.00238312
0.00238268
0.00238219
0.00238164
0.00238103
0.00238038
0.00237973
0.00237912
0.00237865
0.00237846
0.00237908
0.00237958
0.00238626
0.00241326
0.00242633
0.00249041
0.0026252
0.00305845
0.0046723
0.00526067
0.00328741
0.00284597
0.00256202
0.00245694
0.0024517
0.00241682
0.00241143
0.00240542
0.00240226
0.00240008
0.00239856
0.0023974
0.00239646
0.00239568
0.002395
0.0023944
0.00239386
0.00239338
0.00239294
0.00239256
0.00239221
0.00239192
0.00239166
0.00239145
0.00239127
0.00239113
0.00239105
0.00239099
0.00233012
0.00233007
0.00233002
0.00232995
0.00232985
0.00232973
0.00232957
0.00232937
0.00232913
0.00232885
0.00232851
0.00232813
0.0023277
0.00232723
0.00232672
0.0023262
0.0023257
0.00232532
0.00232515
0.00232538
0.00232659
0.00232803
0.0023394
0.00236782
0.00238877
0.00246393
0.00261512
0.0032034
0.0139269
0.0327079
0.00751122
0.00364082
0.00302431
0.00259859
0.00240683
0.00240931
0.0023656
0.00236003
0.00235287
0.0023489
0.00234625
0.00234442
0.00234306
0.00234199
0.0023411
0.00234034
0.00233968
0.00233909
0.00233857
0.0023381
0.00233768
0.00233732
0.002337
0.00233674
0.00233651
0.00233632
0.00233618
0.00233609
0.00233603
0.00227771
0.00227766
0.00227762
0.00227756
0.00227747
0.00227737
0.00227723
0.00227706
0.00227686
0.00227661
0.00227633
0.00227601
0.00227565
0.00227527
0.00227488
0.0022745
0.0022742
0.00227407
0.00227427
0.00227502
0.00227698
0.00228052
0.00229952
0.00233004
0.00236546
0.00245256
0.00266689
0.00351649
0.0376466
0.0432661
0.0988841
0.00615701
0.00401551
0.00323559
0.00265457
0.00236581
0.00237158
0.00231678
0.00231048
0.00230245
0.00229768
0.00229462
0.00229254
0.00229101
0.00228981
0.00228883
0.00228801
0.00228729
0.00228667
0.00228611
0.00228562
0.00228518
0.00228479
0.00228446
0.00228418
0.00228394
0.00228375
0.0022836
0.00228351
0.00228344
0.00222755
0.0022275
0.00222747
0.00222742
0.00222735
0.00222726
0.00222715
0.00222701
0.00222684
0.00222665
0.00222642
0.00222616
0.00222589
0.0022256
0.00222533
0.00222512
0.00222503
0.0022252
0.0022258
0.00222716
0.00223016
0.0022377
0.00226857
0.00230423
0.00238203
0.00252791
0.00357392
0.053507
0.254093
0.0973534
0.0552159
0.00589206
0.00441715
0.00341945
0.00270669
0.00234141
0.00233664
0.0022707
0.00226251
0.00225385
0.00224837
0.00224501
0.00224271
0.00224106
0.00223977
0.00223873
0.00223785
0.00223709
0.00223643
0.00223585
0.00223533
0.00223487
0.00223447
0.00223413
0.00223383
0.00223359
0.00223339
0.00223323
0.00223314
0.00223307
0.0021795
0.00217945
0.00217943
0.00217939
0.00217933
0.00217927
0.00217918
0.00217908
0.00217895
0.0021788
0.00217863
0.00217844
0.00217825
0.00217807
0.00217793
0.00217788
0.002178
0.00217846
0.00217952
0.00218161
0.00218611
0.00219982
0.00224699
0.00229447
0.00246695
0.00281033
0.0171647
0.129239
0.028679
0.0241936
0.0208694
0.00647064
0.00477931
0.00352516
0.0027245
0.00233631
0.00230237
0.0022277
0.00221601
0.0022068
0.00220078
0.00219723
0.0021948
0.00219306
0.00219172
0.00219063
0.00218972
0.00218894
0.00218825
0.00218765
0.00218711
0.00218664
0.00218622
0.00218587
0.00218557
0.00218531
0.0021851
0.00218495
0.00218485
0.00218478
0.00213342
0.00213338
0.00213336
0.00213334
0.0021333
0.00213325
0.0021332
0.00213312
0.00213303
0.00213293
0.00213282
0.0021327
0.0021326
0.00213251
0.00213249
0.00213258
0.00213292
0.00213375
0.0021353
0.0021382
0.00214451
0.00216604
0.00223179
0.00229872
0.00259917
0.00353994
0.0332595
0.0766955
0.0153627
0.0150973
0.0110314
0.00716726
0.00512867
0.00359861
0.00270905
0.00234664
0.00226778
0.00218795
0.00217096
0.00216112
0.00215478
0.00215114
0.00214866
0.00214689
0.00214553
0.00214442
0.0021435
0.0021427
0.002142
0.00214138
0.00214083
0.00214034
0.00213992
0.00213956
0.00213924
0.00213898
0.00213877
0.00213861
0.00213851
0.00213844
0.00208921
0.00208917
0.00208916
0.00208915
0.00208913
0.0020891
0.00208907
0.00208903
0.00208898
0.00208893
0.00208887
0.00208882
0.00208879
0.00208877
0.00208886
0.00208915
0.00208976
0.00209094
0.00209295
0.00209664
0.00210486
0.00213461
0.00221774
0.00230688
0.00271526
0.0043572
0.0357111
0.0516224
0.0324989
0.0264665
0.0122963
0.00870344
0.00571452
0.00376072
0.00269751
0.00235931
0.00223373
0.00215097
0.00212727
0.00211669
0.00211028
0.00210663
0.00210416
0.00210244
0.0021011
0.0021
0.00209907
0.00209826
0.00209755
0.00209692
0.00209637
0.00209588
0.00209545
0.00209507
0.00209476
0.00209449
0.00209428
0.00209412
0.00209401
0.00209394
0.00204675
0.00204672
0.00204671
0.00204671
0.00204671
0.0020467
0.0020467
0.00204669
0.00204668
0.00204667
0.00204666
0.00204666
0.00204668
0.00204678
0.00204702
0.00204749
0.00204833
0.00204982
0.00205222
0.00205663
0.00206663
0.00210376
0.00220053
0.00230895
0.00277414
0.0047114
0.0323673
0.0428173
0.0297332
0.0584765
0.0585959
0.0244632
0.0088161
0.00437746
0.00277977
0.0023512
0.00220113
0.00211614
0.00208493
0.00207357
0.00206732
0.00206372
0.0020613
0.00205961
0.00205831
0.00205724
0.00205632
0.00205552
0.00205481
0.00205419
0.00205363
0.00205313
0.00205269
0.00205232
0.002052
0.00205173
0.00205151
0.00205135
0.00205124
0.00205116
0.00200594
0.00200591
0.00200591
0.00200592
0.00200593
0.00200595
0.00200597
0.00200599
0.00200601
0.00200604
0.00200605
0.0020061
0.00200622
0.00200644
0.00200681
0.00200743
0.00200846
0.00201021
0.00201295
0.00201793
0.00202941
0.00207223
0.00217792
0.00229885
0.00278164
0.00475508
0.0274603
0.0377162
0.0282962
0.0396632
0.0613232
0.0599031
0.0417993
0.0136917
0.0032632
0.0023154
0.00217206
0.002082
0.00204389
0.00203198
0.00202584
0.00202234
0.00202002
0.00201836
0.00201708
0.00201604
0.00201517
0.00201439
0.00201369
0.00201306
0.0020125
0.002012
0.00201157
0.00201119
0.00201087
0.0020106
0.00201038
0.00201021
0.00201011
0.00201002
0.00196669
0.00196665
0.00196667
0.00196669
0.00196671
0.00196675
0.00196679
0.00196684
0.00196689
0.00196693
0.001967
0.00196712
0.00196732
0.00196763
0.0019681
0.00196885
0.00197003
0.00197198
0.00197497
0.00198036
0.00199297
0.00203934
0.00215005
0.00227801
0.002765
0.00472438
0.0227917
0.0321947
0.0292961
0.0289196
0.0419369
0.053869
0.0568038
0.0413469
0.0069922
0.00238847
0.00214794
0.00204739
0.00200404
0.00199191
0.00198591
0.00198242
0.00198022
0.00197864
0.00197739
0.00197637
0.00197552
0.00197477
0.00197409
0.00197347
0.00197291
0.00197241
0.00197197
0.00197159
0.00197127
0.001971
0.00197078
0.00197061
0.00197051
0.00197042
0.0019289
0.00192887
0.00192889
0.00192892
0.00192896
0.00192901
0.00192907
0.00192913
0.0019292
0.00192929
0.00192942
0.0019296
0.00192987
0.00193024
0.0019308
0.00193164
0.00193295
0.00193505
0.00193821
0.00194383
0.0019572
0.00200511
0.00211846
0.00225103
0.00273454
0.0047017
0.0188178
0.027084
0.0298445
0.0276651
0.0295044
0.0386365
0.0553202
0.0546237
0.0157021
0.00279477
0.00212498
0.00201187
0.00196557
0.00195334
0.00194745
0.00194402
0.00194185
0.00194034
0.00193915
0.00193815
0.00193731
0.00193658
0.00193592
0.00193531
0.00193476
0.00193427
0.00193383
0.00193345
0.00193313
0.00193286
0.00193264
0.00193247
0.00193236
0.00193228
0.0018925
0.00189247
0.0018925
0.00189254
0.00189259
0.00189265
0.00189271
0.00189279
0.0018929
0.00189304
0.00189321
0.00189344
0.00189376
0.0018942
0.00189482
0.00189574
0.00189712
0.00189932
0.00190258
0.00190831
0.00192211
0.00197047
0.00208389
0.00222024
0.00269778
0.00473649
0.0156859
0.0231095
0.0307554
0.0314305
0.0246658
0.031408
0.0516163
0.0568143
0.0224127
0.00352889
0.00210698
0.00197566
0.00192847
0.00191624
0.00191039
0.00190705
0.00190492
0.00190341
0.00190224
0.00190126
0.00190047
0.00189975
0.00189911
0.00189852
0.00189798
0.00189749
0.00189706
0.00189668
0.00189636
0.00189608
0.00189587
0.0018957
0.00189559
0.0018955
0.00185741
0.00185738
0.00185741