/*--------------------------------*- C++ -*----------------------------------*\
  =========                 |
  \\      /  F ield         | OpenFOAM: The Open Source CFD Toolbox
   \\    /   O peration     | Website:  https://openfoam.org
    \\  /    A nd           | Version:  12
     \\/     M anipulation  |
\*---------------------------------------------------------------------------*/
FoamFile
{
    format      ascii;
    class       volScalarField;
    location    "300";
    object      nut;
}
// * * * * * * * * * * * * * * * * * * * * * * * * * * * * * * * * * * * * * //

dimensions      [0 2 -1 0 0 0 0];

internalField   nonuniform List<scalar> 
16227
(
0.000978543
0.000978543
0.000978543
0.000978543
0.000978543
0.000978543
0.000978543
0.000978543
0.000978543
0.000978543
0.000978543
0.000978543
0.000978544
0.000978544
0.000978544
0.000978544
0.000978544
0.000978544
0.000978544
0.000978544
0.000978544
0.000978544
0.000978544
0.000978544
0.000978544
0.000978544
0.000978544
0.000978544
0.000978544
0.000978544
0.000978544
0.000978544
0.000978544
0.000978544
0.000978544
0.000978544
0.000978544
0.000978544
0.000978544
0.000978544
0.000978544
0.000978544
0.000978544
0.000978544
0.000978544
0.000978544
0.000978544
0.000978544
0.000978544
0.000978544
0.000978544
0.000978544
0.000978543
0.000978543
0.000978543
0.000978543
0.000978543
0.000978543
0.000978543
0.000978543
0.000972834
0.000972834
0.000972834
0.000972834
0.000972834
0.000972834
0.000972834
0.000972834
0.000972834
0.000972834
0.000972835
0.000972835
0.000972836
0.000972836
0.000972836
0.000972836
0.000972836
0.000972836
0.000972836
0.000972836
0.000972837
0.000972837
0.000972837
0.000972837
0.000972837
0.000972837
0.000972837
0.000972837
0.000972837
0.000972836
0.000972837
0.000972837
0.000972837
0.000972837
0.000972837
0.000972837
0.000972837
0.000972837
0.000972837
0.000972837
0.000972837
0.000972837
0.000972837
0.000972837
0.000972837
0.000972836
0.000972836
0.000972837
0.000972837
0.000972836
0.000972836
0.000972836
0.000972835
0.000972835
0.000972834
0.000972834
0.000972835
0.000972834
0.000972834
0.000972834
0.000967494
0.000967494
0.000967494
0.000967494
0.000967494
0.000967495
0.000967494
0.000967494
0.000967494
0.000967495
0.000967495
0.000967495
0.000967497
0.000967498
0.000967498
0.000967498
0.000967498
0.000967498
0.000967498
0.000967497
0.000967498
0.000967498
0.000967498
0.000967498
0.000967498
0.000967498
0.000967498
0.000967498
0.000967498
0.000967498
0.000967498
0.000967498
0.000967498
0.000967498
0.000967499
0.000967499
0.000967499
0.000967499
0.000967498
0.000967498
0.000967499
0.000967499
0.000967498
0.000967498
0.000967498
0.000967498
0.000967498
0.000967498
0.000967498
0.000967498
0.000967497
0.000967496
0.000967495
0.000967495
0.000967495
0.000967495
0.000967495
0.000967494
0.000967494
0.000967494
0.000962481
0.000962481
0.000962481
0.000962481
0.000962481
0.000962482
0.000962482
0.000962481
0.000962481
0.000962481
0.000962482
0.000962482
0.000962485
0.000962485
0.000962485
0.000962486
0.000962486
0.000962486
0.000962485
0.000962484
0.000962485
0.000962486
0.000962486
0.000962486
0.000962486
0.000962486
0.000962486
0.000962486
0.000962486
0.000962485
0.000962486
0.000962486
0.000962486
0.000962486
0.000962487
0.000962487
0.000962487
0.000962487
0.000962487
0.000962487
0.000962487
0.000962487
0.000962487
0.000962487
0.000962487
0.000962487
0.000962487
0.000962486
0.000962487
0.000962486
0.000962485
0.000962483
0.000962482
0.000962482
0.000962482
0.000962483
0.000962482
0.000962482
0.000962482
0.000962481
0.000957759
0.00095776
0.00095776
0.00095776
0.00095776
0.00095776
0.00095776
0.00095776
0.00095776
0.00095776
0.00095776
0.000957761
0.000957763
0.000957764
0.000957764
0.000957764
0.000957764
0.000957764
0.000957762
0.000957761
0.000957763
0.000957764
0.000957764
0.000957764
0.000957764
0.000957764
0.000957764
0.000957764
0.000957764
0.000957764
0.000957765
0.000957765
0.000957765
0.000957766
0.000957766
0.000957766
0.000957766
0.000957766
0.000957767
0.000957767
0.000957767
0.000957767
0.000957767
0.000957767
0.000957767
0.000957767
0.000957767
0.000957767
0.000957766
0.000957766
0.000957763
0.000957762
0.000957761
0.000957761
0.000957762
0.000957762
0.000957761
0.000957761
0.000957761
0.00095776
0.000953299
0.0009533
0.0009533
0.0009533
0.0009533
0.0009533
0.0009533
0.0009533
0.000953299
0.000953299
0.000953299
0.0009533
0.0009533
0.000953304
0.000953304
0.000953304
0.000953304
0.000953303
0.0009533
0.0009533
0.000953302
0.000953303
0.000953303
0.000953303
0.000953303
0.000953303
0.000953303
0.000953304
0.000953304
0.000953303
0.000953304
0.000953305
0.000953305
0.000953306
0.000953306
0.000953306
0.000953307
0.000953307
0.000953307
0.000953308
0.000953308
0.000953308
0.000953308
0.000953308
0.000953308
0.000953308
0.000953308
0.000953308
0.000953308
0.000953306
0.000953304
0.000953302
0.000953302
0.000953302
0.000953303
0.000953303
0.000953302
0.000953301
0.000953301
0.000953301
0.000949075
0.000949075
0.000949075
0.000949075
0.000949075
0.000949075
0.000949076
0.000949075
0.000949075
0.000949075
0.000949074
0.000949074
0.000949075
0.000949078
0.000949079
0.000949079
0.000949079
0.000949075
0.000949074
0.000949074
0.000949077
0.000949077
0.000949077
0.000949077
0.000949077
0.000949077
0.000949077
0.000949078
0.000949078
0.000949077
0.000949079
0.000949079
0.00094908
0.000949081
0.000949081
0.000949082
0.000949083
0.000949083
0.000949084
0.000949084
0.000949085
0.000949085
0.000949085
0.000949085
0.000949085
0.000949085
0.000949085
0.000949085
0.000949085
0.000949081
0.00094908
0.000949079
0.000949079
0.000949079
0.000949079
0.000949079
0.000949079
0.000949078
0.000949078
0.000949078
0.000945064
0.000945064
0.000945064
0.000945064
0.000945064
0.000945064
0.000945065
0.000945064
0.000945064
0.000945063
0.000945062
0.000945062
0.000945062
0.000945063
0.000945066
0.000945067
0.000945066
0.000945062
0.00094506
0.00094506
0.000945063
0.000945064
0.000945064
0.000945063
0.000945063
0.000945064
0.000945064
0.000945064
0.000945064
0.000945064
0.000945066
0.000945067
0.000945068
0.000945069
0.00094507
0.000945071
0.000945072
0.000945073
0.000945073
0.000945074
0.000945075
0.000945075
0.000945076
0.000945076
0.000945076
0.000945076
0.000945077
0.000945076
0.000945075
0.000945071
0.00094507
0.000945069
0.00094507
0.00094507
0.00094507
0.00094507
0.000945069
0.000945069
0.000945069
0.000945068
0.000941248
0.000941248
0.000941248
0.000941247
0.000941247
0.000941247
0.000941247
0.000941247
0.000941247
0.000941245
0.000941244
0.000941243
0.000941243
0.000941244
0.000941248
0.000941249
0.000941246
0.000941242
0.000941241
0.00094124
0.000941243
0.000941244
0.000941243
0.000941243
0.000941243
0.000941243
0.000941243
0.000941244
0.000941244
0.000941244
0.000941246
0.000941248
0.000941249
0.000941251
0.000941252
0.000941253
0.000941255
0.000941256
0.000941257
0.000941258
0.000941259
0.00094126
0.000941261
0.000941261
0.000941261
0.000941262
0.000941262
0.000941261
0.000941257
0.000941255
0.000941254
0.000941255
0.000941255
0.000941255
0.000941255
0.000941255
0.000941254
0.000941254
0.000941254
0.000941254
0.000937608
0.000937608
0.000937608
0.000937608
0.000937608
0.000937607
0.000937608
0.000937607
0.000937606
0.000937605
0.000937604
0.000937602
0.000937601
0.000937602
0.000937605
0.000937606
0.000937601
0.000937598
0.000937597
0.000937597
0.000937599
0.0009376
0.000937599
0.000937599
0.000937599
0.000937599
0.000937599
0.0009376
0.0009376
0.0009376
0.000937603
0.000937605
0.000937607
0.000937609
0.000937611
0.000937613
0.000937615
0.000937616
0.000937618
0.00093762
0.000937621
0.000937622
0.000937623
0.000937624
0.000937625
0.000937625
0.000937625
0.000937624
0.00093762
0.000937618
0.000937617
0.000937617
0.000937618
0.000937618
0.000937618
0.000937618
0.000937617
0.000937617
0.000937616
0.000937616
0.000934132
0.000934132
0.000934132
0.000934131
0.000934131
0.00093413
0.00093413
0.000934129
0.000934128
0.000934127
0.000934126
0.000934123
0.000934122
0.000934121
0.000934122
0.000934124
0.00093412
0.000934117
0.000934116
0.000934115
0.000934117
0.000934117
0.000934117
0.000934116
0.000934116
0.000934116
0.000934117
0.000934117
0.000934118
0.000934119
0.000934122
0.000934124
0.000934127
0.000934129
0.000934132
0.000934135
0.000934137
0.000934139
0.000934142
0.000934144
0.000934146
0.000934147
0.000934148
0.000934149
0.00093415
0.000934151
0.00093415
0.000934148
0.000934145
0.000934144
0.000934143
0.000934143
0.000934144
0.000934144
0.000934144
0.000934144
0.000934143
0.000934142
0.000934142
0.000934142
0.000930805
0.000930804
0.000930804
0.000930804
0.000930803
0.000930803
0.000930802
0.000930801
0.0009308
0.000930798
0.000930796
0.000930794
0.000930791
0.00093079
0.00093079
0.000930791
0.000930788
0.000930785
0.000930782
0.000930781
0.000930781
0.000930783
0.000930782
0.000930782
0.000930781
0.000930782
0.000930782
0.000930783
0.000930785
0.000930785
0.000930789
0.000930792
0.000930796
0.000930799
0.000930802
0.000930806
0.000930809
0.000930812
0.000930815
0.000930817
0.00093082
0.000930822
0.000930824
0.000930825
0.000930826
0.000930826
0.000930824
0.000930822
0.000930821
0.00093082
0.000930819
0.000930819
0.00093082
0.00093082
0.00093082
0.000930819
0.000930819
0.000930818
0.000930818
0.000930818
0.000927615
0.000927615
0.000927615
0.000927614
0.000927614
0.000927613
0.000927612
0.000927611
0.000927609
0.000927607
0.000927605
0.000927602
0.000927599
0.000927596
0.000927594
0.000927593
0.000927592
0.000927589
0.000927586
0.000927585
0.000927583
0.000927585
0.000927585
0.000927584
0.000927584
0.000927584
0.000927585
0.000927586
0.000927588
0.000927589
0.000927594
0.000927598
0.000927602
0.000927606
0.00092761
0.000927615
0.000927619
0.000927623
0.000927626
0.00092763
0.000927633
0.000927635
0.000927637
0.000927639
0.00092764
0.00092764
0.000927637
0.000927637
0.000927635
0.000927634
0.000927634
0.000927634
0.000927634
0.000927634
0.000927634
0.000927634
0.000927633
0.000927632
0.000927632
0.000927632
0.000924554
0.000924554
0.000924553
0.000924553
0.000924552
0.000924551
0.000924549
0.000924548
0.000924546
0.000924543
0.00092454
0.000924537
0.000924534
0.000924531
0.000924527
0.000924525
0.000924524
0.000924521
0.000924517
0.000924515
0.000924513
0.000924515
0.000924514
0.000924513
0.000924513
0.000924513
0.000924514
0.000924516
0.000924518
0.00092452
0.000924525
0.00092453
0.000924535
0.00092454
0.000924546
0.000924551
0.000924556
0.000924561
0.000924566
0.00092457
0.000924573
0.000924577
0.000924579
0.000924581
0.000924581
0.00092458
0.00092458
0.000924579
0.000924578
0.000924577
0.000924576
0.000924576
0.000924577
0.000924576
0.000924576
0.000924576
0.000924575
0.000924575
0.000924575
0.000924575
0.000921611
0.000921611
0.00092161
0.000921609
0.000921608
0.000921607
0.000921605
0.000921603
0.000921601
0.000921598
0.000921595
0.000921591
0.000921587
0.000921583
0.000921579
0.000921576
0.000921574
0.00092157
0.000921566
0.000921563
0.00092156
0.000921562
0.000921561
0.000921559
0.000921559
0.000921559
0.000921561
0.000921563
0.000921566
0.000921568
0.000921575
0.000921581
0.000921587
0.000921593
0.0009216
0.000921606
0.000921613
0.000921619
0.000921624
0.000921629
0.000921634
0.000921637
0.00092164
0.000921642
0.000921641
0.000921641
0.000921641
0.000921641
0.000921639
0.000921638
0.000921638
0.000921638
0.000921638
0.000921638
0.000921638
0.000921637
0.000921637
0.000921636
0.000921636
0.000921636
0.000918779
0.000918778
0.000918778
0.000918776
0.000918775
0.000918774
0.000918772
0.000918769
0.000918766
0.000918763
0.000918759
0.000918755
0.00091875
0.000918745
0.00091874
0.000918737
0.000918734
0.000918729
0.000918724
0.00091872
0.000918717
0.000918717
0.000918717
0.000918715
0.000918715
0.000918715
0.000918717
0.00091872
0.000918723
0.000918727
0.000918734
0.000918742
0.000918749
0.000918757
0.000918765
0.000918773
0.00091878
0.000918788
0.000918794
0.0009188
0.000918805
0.000918809
0.000918813
0.000918814
0.000918813
0.000918813
0.000918813
0.000918812
0.000918811
0.000918811
0.000918811
0.000918811
0.000918811
0.00091881
0.00091881
0.000918809
0.000918809
0.000918808
0.000918808
0.000918808
0.000916049
0.000916049
0.000916048
0.000916046
0.000916045
0.000916043
0.000916041
0.000916038
0.000916035
0.000916031
0.000916026
0.000916021
0.000916016
0.00091601
0.000916004
0.000916
0.000915996
0.000915991
0.000915985
0.00091598
0.000915976
0.000915973
0.000915974
0.000915973
0.000915973
0.000915973
0.000915976
0.000915979
0.000915984
0.000915988
0.000915997
0.000916006
0.000916015
0.000916024
0.000916034
0.000916043
0.000916052
0.00091606
0.000916068
0.000916075
0.000916081
0.000916085
0.000916087
0.000916088
0.000916089
0.000916089
0.00091609
0.000916089
0.000916088
0.000916087
0.000916087
0.000916087
0.000916086
0.000916086
0.000916085
0.000916085
0.000916084
0.000916083
0.000916083
0.000916083
0.000913416
0.000913415
0.000913414
0.000913413
0.000913411
0.000913409
0.000913406
0.000913403
0.000913399
0.000913395
0.000913389
0.000913384
0.000913377
0.000913371
0.000913364
0.000913359
0.000913354
0.000913348
0.000913342
0.000913335
0.00091333
0.000913326
0.000913328
0.000913327
0.000913327
0.000913328
0.000913331
0.000913335
0.000913341
0.000913347
0.000913357
0.000913368
0.000913379
0.00091339
0.000913401
0.000913412
0.000913422
0.000913431
0.00091344
0.000913447
0.000913454
0.000913458
0.000913459
0.00091346
0.000913462
0.000913463
0.000913463
0.000913462
0.000913461
0.00091346
0.00091346
0.000913459
0.000913459
0.000913458
0.000913457
0.000913456
0.000913455
0.000913455
0.000913454
0.000913454
0.000910872
0.000910872
0.000910871
0.000910869
0.000910867
0.000910865
0.000910862
0.000910858
0.000910854
0.000910849
0.000910843
0.000910836
0.000910829
0.000910822
0.000910815
0.000910808
0.000910803
0.000910796
0.000910788
0.000910781
0.000910776
0.000910772
0.000910772
0.000910772
0.000910772
0.000910774
0.000910778
0.000910784
0.000910791
0.000910799
0.000910811
0.000910823
0.000910836
0.000910849
0.000910862
0.000910874
0.000910885
0.000910896
0.000910905
0.000910912
0.000910919
0.000910923
0.000910924
0.000910926
0.000910927
0.000910928
0.000910927
0.000910926
0.000910925
0.000910924
0.000910923
0.000910922
0.000910922
0.000910921
0.00091092
0.000910919
0.000910917
0.000910917
0.000910916
0.000910916
0.000908414
0.000908414
0.000908412
0.000908411
0.000908408
0.000908406
0.000908402
0.000908398
0.000908393
0.000908388
0.000908381
0.000908374
0.000908366
0.000908358
0.00090835
0.000908342
0.000908335
0.000908328
0.00090832
0.000908313
0.000908306
0.000908302
0.0009083
0.000908303
0.000908305
0.000908308
0.000908313
0.000908321
0.00090833
0.00090834
0.000908355
0.000908369
0.000908384
0.000908398
0.000908412
0.000908426
0.000908438
0.000908448
0.000908457
0.000908464
0.00090847
0.000908473
0.000908475
0.000908477
0.000908479
0.000908479
0.000908477
0.000908476
0.000908475
0.000908474
0.000908472
0.000908471
0.00090847
0.000908468
0.000908467
0.000908466
0.000908464
0.000908463
0.000908463
0.000908462
0.000906036
0.000906035
0.000906034
0.000906032
0.000906029
0.000906026
0.000906023
0.000906018
0.000906013
0.000906007
0.000906
0.000905992
0.000905983
0.000905974
0.000905965
0.000905956
0.000905948
0.000905941
0.000905933
0.000905925
0.000905919
0.000905915
0.000905913
0.000905918
0.000905922
0.000905928
0.000905935
0.000905946
0.000905958
0.000905971
0.000905988
0.000906005
0.000906022
0.000906037
0.000906052
0.000906065
0.000906077
0.000906086
0.000906094
0.0009061
0.000906104
0.000906107
0.000906109
0.000906111
0.000906112
0.00090611
0.000906108
0.000906106
0.000906105
0.000906103
0.000906101
0.000906099
0.000906097
0.000906095
0.000906094
0.000906092
0.00090609
0.000906089
0.000906089
0.000906088
0.000903733
0.000903732
0.000903731
0.000903728
0.000903726
0.000903722
0.000903719
0.000903714
0.000903708
0.000903701
0.000903694
0.000903685
0.000903676
0.000903666
0.000903656
0.000903647
0.000903638
0.000903631
0.000903623
0.000903616
0.00090361
0.000903608
0.000903609
0.000903616
0.000903623
0.000903632
0.000903644
0.000903659
0.000903676
0.000903694
0.000903714
0.000903734
0.000903752
0.000903768
0.000903782
0.000903794
0.000903802
0.000903808
0.000903814
0.000903818
0.000903819
0.000903821
0.000903822
0.000903823
0.000903821
0.000903819
0.000903816
0.000903813
0.000903811
0.000903808
0.000903805
0.000903803
0.0009038
0.000903798
0.000903796
0.000903794
0.000903792
0.00090379
0.000903789
0.000903789
0.000901501
0.0009015
0.000901498
0.000901496
0.000901493
0.00090149
0.000901486
0.000901481
0.000901475
0.000901468
0.000901459
0.000901451
0.000901441
0.000901431
0.000901421
0.00090141
0.000901401
0.000901394
0.000901387
0.000901381
0.000901378
0.000901379
0.000901386
0.000901397
0.000901417
0.00090143
0.000901448
0.000901471
0.000901495
0.000901519
0.000901545
0.000901568
0.000901586
0.0009016
0.000901611
0.000901619
0.000901614
0.000901614
0.000901612
0.000901612
0.000901612
0.000901611
0.00090161
0.000901607
0.000901604
0.000901599
0.000901596
0.000901592
0.000901588
0.000901585
0.000901581
0.000901577
0.000901574
0.000901571
0.000901568
0.000901566
0.000901564
0.000901562
0.000901561
0.00090156
0.000899336
0.000899335
0.000899334
0.000899332
0.000899329
0.000899325
0.000899321
0.000899315
0.000899309
0.000899302
0.000899294
0.000899284
0.000899275
0.000899264
0.000899254
0.000899243
0.000899234
0.000899227
0.000899223
0.000899221
0.000899223
0.000899231
0.000899248
0.000899281
0.000900311
0.000900334
0.000900357
0.000900385
0.000900416
0.000900446
0.000900475
0.0009005
0.000900517
0.000900529
0.000900536
0.000900539
0.000899541
0.000899505
0.000899494
0.000899486
0.00089948
0.000899475
0.000899469
0.000899462
0.000899456
0.00089945
0.000899444
0.000899439
0.000899434
0.000899428
0.000899424
0.000899419
0.000899415
0.000899411
0.000899408
0.000899405
0.000899402
0.0008994
0.000899399
0.000899398
0.000897236
0.000897235
0.000897233
0.000897231
0.000897228
0.000897224
0.00089722
0.000897214
0.000897208
0.000897201
0.000897192
0.000897183
0.000897174
0.000897164
0.000897154
0.000897144
0.000897136
0.00089713
0.000897129
0.000897133
0.000897144
0.000897167
0.000897205
0.00089822
0.000898187
0.000898229
0.000898266
0.000898313
0.000898365
0.000898412
0.000898453
0.00089848
0.000898494
0.000898496
0.00089849
0.000898471
0.000898505
0.000897507
0.000897459
0.000897438
0.000897422
0.000897409
0.000897397
0.000897385
0.000897375
0.000897366
0.000897358
0.00089735
0.000897343
0.000897336
0.00089733
0.000897324
0.000897319
0.000897314
0.00089731
0.000897307
0.000897303
0.000897301
0.0008973
0.000897299
0.000895196
0.000895195
0.000895193
0.000895191
0.000895188
0.000895185
0.00089518
0.000895175
0.000895169
0.000895161
0.000895153
0.000895145
0.000895135
0.000895126
0.000895117
0.000895109
0.000895103
0.000895102
0.000895106
0.000895119
0.000895143
0.000895193
0.000895258
0.000896184
0.000896194
0.000896739
0.000896791
0.000896864
0.000896942
0.000897008
0.000897056
0.000897078
0.000897078
0.000897065
0.000897045
0.000896551
0.000896531
0.000895603
0.00089551
0.000895468
0.000895437
0.000895412
0.00089539
0.000895372
0.000895357
0.000895344
0.000895333
0.000895322
0.000895313
0.000895304
0.000895296
0.000895289
0.000895282
0.000895277
0.000895272
0.000895268
0.000895264
0.000895262
0.00089526
0.000895259
0.000893214
0.000893213
0.000893211
0.000893209
0.000893207
0.000893203
0.000893199
0.000893194
0.000893188
0.000893181
0.000893174
0.000893165
0.000893157
0.00089315
0.000893143
0.000893138
0.000893136
0.00089314
0.000893153
0.000893178
0.000893221
0.000893312
0.000893421
0.000894264
0.00089436
0.000894864
0.000894966
0.00089512
0.000895268
0.000895371
0.00089541
0.000895391
0.000895339
0.000895279
0.000895229
0.000894805
0.000894681
0.000893806
0.000893655
0.000893576
0.000893523
0.000893481
0.000893448
0.000893421
0.0008934
0.000893382
0.000893366
0.000893352
0.00089334
0.000893329
0.000893319
0.00089331
0.000893303
0.000893296
0.00089329
0.000893285
0.000893281
0.000893278
0.000893276
0.000893275
0.000891287
0.000891286
0.000891285
0.000891283
0.00089128
0.000891277
0.000891273
0.000891268
0.000891263
0.000891257
0.00089125
0.000891244
0.000891237
0.000891232
0.000891228
0.000891227
0.000891232
0.000891245
0.00089127
0.000891314
0.000891385
0.000891532
0.0008917
0.000892483
0.000892721
0.000893125
0.000893405
0.00089378
0.000894119
0.000894327
0.000894338
0.000894187
0.000893969
0.000893764
0.000893621
0.000893285
0.000892973
0.000892127
0.000891901
0.000891766
0.000891681
0.000891616
0.000891568
0.00089153
0.0008915
0.000891475
0.000891455
0.000891437
0.000891421
0.000891407
0.000891396
0.000891385
0.000891376
0.000891368
0.000891362
0.000891356
0.000891352
0.000891348
0.000891346
0.000891344
0.000889413
0.000889411
0.00088941
0.000889408
0.000889406
0.000889403
0.0008894
0.000889396
0.000889392
0.000889387
0.000889382
0.000889377
0.000889373
0.000889371
0.000889371
0.000889377
0.00088939
0.000889415
0.000889459
0.000889529
0.000889643
0.00088986
0.0008901
0.000890862
0.000891342
0.000891572
0.000892348
0.000893289
0.000894203
0.000894788
0.000894747
0.000894172
0.000893419
0.000892757
0.000892306
0.000892089
0.000891437
0.000890575
0.000890259
0.000890038
0.00088991
0.000889816
0.000889747
0.000889695
0.000889655
0.000889622
0.000889595
0.000889573
0.000889554
0.000889537
0.000889523
0.000889511
0.000889501
0.000889491
0.000889484
0.000889478
0.000889472
0.000889469
0.000889466
0.000889464
0.000887588
0.000887587
0.000887586
0.000887585
0.000887583
0.000887581
0.000887578
0.000887575
0.000887572
0.000887568
0.000887565
0.000887563
0.000887562
0.000887564
0.000887571
0.000887585
0.00088761
0.000887652
0.00088772
0.000887826
0.000888002
0.000888296
0.000888622
0.000889441
0.000890241
0.000890428
0.00089241
0.00089482
0.000897723
0.000899966
0.000899921
0.000897709
0.000894986
0.000892831
0.000891469
0.000891307
0.000890126
0.000889156
0.00088874
0.000888398
0.000888213
0.000888078
0.000887983
0.000887914
0.000887861
0.000887819
0.000887786
0.000887758
0.000887735
0.000887716
0.000887699
0.000887685
0.000887673
0.000887663
0.000887654
0.000887647
0.000887641
0.000887637
0.000887634
0.000887632
0.000885811
0.00088581
0.00088581
0.000885809
0.000885807
0.000885806
0.000885804
0.000885803
0.000885801
0.000885799
0.000885799
0.0008858
0.000885803
0.000885811
0.000885826
0.00088585
0.00088589
0.000885954
0.000886054
0.000886206
0.000886466
0.000886835
0.000887282
0.000888291
0.000889419
0.000890315
0.000894921
0.000901754
0.000913179
0.000925055
0.000925633
0.000914555
0.000902831
0.000895449
0.000891549
0.000890933
0.000889111
0.000887862
0.000887347
0.000886847
0.000886585
0.000886398
0.000886272
0.000886182
0.000886114
0.000886063
0.000886022
0.000885989
0.000885962
0.000885939
0.00088592
0.000885904
0.000885891
0.000885879
0.00088587
0.000885862
0.000885855
0.000885851
0.000885848
0.000885846
0.00088408
0.000884079
0.000884079
0.000884078
0.000884078
0.000884077
0.000884077
0.000884077
0.000884077
0.000884078
0.00088408
0.000884085
0.000884094
0.000884109
0.000884133
0.000884171
0.000884229
0.00088432
0.00088446
0.000884671
0.000885034
0.000885471
0.000886124
0.00088751
0.000888999
0.000892191
0.000902118
0.000923643
0.000434842
0.000274317
0.000278186
0.000435785
0.00093079
0.000904372
0.000893563
0.000890777
0.000888476
0.00088667
0.000886074
0.000885379
0.000885021
0.000884773
0.00088461
0.000884496
0.000884413
0.000884351
0.000884302
0.000884264
0.000884232
0.000884207
0.000884185
0.000884167
0.000884152
0.000884139
0.000884129
0.00088412
0.000884113
0.000884108
0.000884105
0.000884102
0.000882393
0.000882392
0.000882392
0.000882392
0.000882392
0.000882393
0.000882394
0.000882395
0.000882398
0.000882401
0.000882407
0.000882417
0.000882432
0.000882456
0.000882491
0.000882545
0.000882626
0.00088275
0.000882938
0.00088322
0.0008837
0.000884206
0.000885227
0.000887163
0.000889317
0.000896563
0.000915674
0.000559249
0.000220001
0.000100945
0.000106891
0.000173552
0.000435439
0.000927597
0.000899362
0.000890521
0.0008883
0.000885536
0.0008849
0.000883984
0.000883513
0.000883195
0.000882992
0.000882853
0.000882753
0.000882679
0.000882623
0.000882579
0.000882543
0.000882515
0.00088249
0.000882471
0.000882454
0.00088244
0.000882429
0.000882419
0.000882412
0.000882406
0.000882403
0.0008824
0.000880747
0.000880746
0.000880746
0.000880747
0.000880748
0.00088075
0.000880752
0.000880756
0.000880761
0.000880768
0.000880778
0.000880794
0.000880816
0.000880849
0.000880898
0.000880971
0.000881079
0.000881241
0.000881487
0.000881853
0.000882463
0.000883074
0.00088472
0.000887277
0.000890622
0.000902227
0.000930091
0.000645476
0.000171063
0.000137495
0.000319189
0.000866453
0.000910958
0.000889915
0.00088865
0.000884416
0.000883789
0.000882648
0.00088205
0.000881657
0.000881411
0.000881246
0.00088113
0.000881045
0.000880981
0.000880932
0.000880892
0.000880861
0.000880834
0.000880813
0.000880795
0.00088078
0.000880768
0.000880758
0.00088075
0.000880744
0.00088074
0.000880737
0.00087914
0.000879139
0.00087914
0.000879142
0.000879144
0.000879147
0.000879151
0.000879157
0.000879165
0.000879176
0.000879191
0.000879212
0.000879243
0.000879287
0.000879351
0.000879445
0.000879583
0.000879791
0.000880103
0.000880571
0.000881328
0.00088216
0.000884831
0.000887997
0.000893029
0.000907297
0.000936391
0.000884551
0.000182607
5.23804e-05
0.000403168
0.00036617
0.000818332
0.000928374
0.000889226
0.000889657
0.000883322
0.000882707
0.000881356
0.000880619
0.000880152
0.000879865
0.000879674
0.000879542
0.000879447
0.000879376
0.000879322
0.000879279
0.000879244
0.000879216
0.000879192
0.000879173
0.000879157
0.000879144
0.000879134
0.000879125
0.000879119
0.000879115
0.000879112
0.000877572
0.000877571
0.000877572
0.000877575
0.000877578
0.000877583
0.000877589
0.000877597
0.000877608
0.000877623
0.000877643
0.000877671
0.000877711
0.000877767
0.000877847
0.000877965
0.000878137
0.000878396
0.000878785
0.000879371
0.000880311
0.000881617
0.000885974
0.000889863
0.000898089
0.000915272
0.000951234
0.000764027
0.000235646
0.000241253
0.000399419
0.000477821
0.00061214
0.00102875
0.000949948
0.000890126
0.000891365
0.00088236
0.000881616
0.000880096
0.000879208
0.000878674
0.000878346
0.000878132
0.000877986
0.000877882
0.000877805
0.000877746
0.0008777
0.000877663
0.000877633
0.000877608
0.000877587
0.00087757
0.000877557
0.000877545
0.000877537
0.00087753
0.000877526
0.000877523
0.000876039
0.000876038
0.00087604
0.000876044
0.000876048
0.000876054
0.000876062
0.000876073
0.000876088
0.000876107
0.000876132
0.000876167
0.000876216
0.000876285
0.000876383
0.000876526
0.000876735
0.00087705
0.000877524
0.000878248
0.000879435
0.000881638
0.000888663
0.000893922
0.000911576
0.000941299
0.0011062
0.00298569
0.00281767
0.000818241
0.000738024
0.000614172
0.000999558
0.00109666
0.000971286
0.000894479
0.00089352
0.000881675
0.000880509
0.000878847
0.000877806
0.000877214
0.00087685
0.000876617
0.000876458
0.000876347
0.000876265
0.000876203
0.000876154
0.000876115
0.000876083
0.000876057
0.000876036
0.000876018
0.000876003
0.000875992
0.000875982
0.000875975
0.000875971
0.000875968
0.000874541
0.00087454
0.000874543
0.000874547
0.000874553
0.000874561
0.000874571
0.000874584
0.000874602
0.000874625
0.000874657
0.000874699
0.000874757
0.000874839
0.000874956
0.000875124
0.000875371
0.000875745
0.00087631
0.000877191
0.00087871
0.000882325
0.000893068
0.000901185
0.000939971
0.00101164
0.00224197
0.0018571
0.000380254
0.000414211
0.000877315
0.000864076
0.00115072
0.00113573
0.000986271
0.000903138
0.000895737
0.000881403
0.0008794
0.000877584
0.000876406
0.000875768
0.000875373
0.000875125
0.000874958
0.000874841
0.000874756
0.000874691
0.00087464
0.000874599
0.000874566
0.000874539
0.000874516
0.000874498
0.000874483
0.000874471
0.000874461
0.000874454
0.000874449
0.000874446
0.000873076
0.000873075
0.000873079
0.000873083
0.000873091
0.0008731
0.000873112
0.000873128
0.00087315
0.000873177
0.000873214
0.000873263
0.000873331
0.000873426
0.00087356
0.000873752
0.000874038
0.000874474
0.000875131
0.000876179
0.000878107
0.000883552
0.000898632
0.000911368
0.000978692
0.00117032
0.00214966
0.00119252
0.000475544
0.000728845
0.000998825
0.00117019
0.00129786
0.0011686
0.000995065
0.000915539
0.000897827
0.000881619
0.000878303
0.000876289
0.000875005
0.000874332
0.000873914
0.000873656
0.000873483
0.000873362
0.000873274
0.000873208
0.000873156
0.000873114
0.00087308
0.000873052
0.000873028
0.000873009
0.000872994
0.000872981
0.000872971
0.000872964
0.000872959
0.000872955
0.000871642
0.000871642
0.000871646
0.000871651
0.00087166
0.000871671
0.000871685
0.000871704
0.000871728
0.00087176
0.000871802
0.000871859
0.000871935
0.000872041
0.000872191
0.00087241
0.000872733
0.000873228
0.000873971
0.000875186
0.00087756
0.000884987
0.000904234
0.000922297
0.00101361
0.00131677
0.00190459
0.000895159
0.00150373
0.00239057
0.00160974
0.00158838
0.00146933
0.00121872
0.00100508
0.000928752
0.000899983
0.000882272
0.000877216
0.000874957
0.000873605
0.000872903
0.000872471
0.000872208
0.000872032
0.00087191
0.000871821
0.000871753
0.0008717
0.000871658
0.000871623
0.000871594
0.00087157
0.000871551
0.000871534
0.000871521
0.000871511
0.000871504
0.000871499
0.000871495
0.000870238
0.000870238
0.000870243
0.000870249
0.000870259
0.000870271
0.000870288
0.000870309
0.000870337
0.000870373
0.000870419
0.000870482
0.000870566
0.000870684
0.00087085
0.000871092
0.00087145
0.000871997
0.000872816
0.000874186
0.000876992
0.000886273
0.000908932
0.000931748
0.00103596
0.00137626
0.0017538
0.000809399
0.00109075
0.00464732
0.00665467
0.00367809
0.00208066
0.00136116
0.0010359
0.000937569
0.000902332
0.00088317
0.000876123
0.000873597
0.000872212
0.000871486
0.000871047
0.00087078
0.000870605
0.000870483
0.000870394
0.000870326
0.000870273
0.00087023
0.000870194
0.000870165
0.000870141
0.000870121
0.000870104
0.000870091
0.00087008
0.000870073
0.000870068
0.000870064
0.000868863
0.000868863
0.000868868
0.000868876
0.000868887
0.000868901
0.000868919
0.000868943
0.000868973
0.000869013
0.000869063
0.000869131