/*--------------------------------*- C++ -*----------------------------------*\
  =========                 |
  \\      /  F ield         | OpenFOAM: The Open Source CFD Toolbox
   \\    /   O peration     | Website:  https://openfoam.org
    \\  /    A nd           | Version:  12
     \\/     M anipulation  |
\*---------------------------------------------------------------------------*/
FoamFile
{
    format      ascii;
    class       volScalarField;
    location    "300";
    object      omega;
}
// * * * * * * * * * * * * * * * * * * * * * * * * * * * * * * * * * * * * * //

dimensions      [0 0 -1 0 0 0 0];

internalField   nonuniform List<scalar> 
16227
(
9.34702
9.34704
9.34704
9.34707
9.34706
9.3471
9.34709
9.34708
9.34707
9.34709
9.34713
9.34715
9.3472
9.3472
9.3472
9.3472
9.3472
9.3472
9.3472
9.3472
9.3472
9.3472
9.3472
9.3472
9.3472
9.3472
9.3472
9.34722
9.34722
9.3472
9.34721
9.3472
9.3472
9.3472
9.34721
9.3472
9.3472
9.3472
9.3472
9.3472
9.3472
9.3472
9.3472
9.3472
9.3472
9.3472
9.3472
9.34719
9.34717
9.34717
9.34717
9.34716
9.3471
9.3471
9.34706
9.34705
9.34707
9.34705
9.34703
9.34702
8.71805
8.71807
8.71806
8.7181
8.7181
8.71813
8.71812
8.7181
8.71811
8.71812
8.71817
8.71819
8.71833
8.71839
8.7184
8.7184
8.7184
8.7184
8.7184
8.7184
8.71841
8.71842
8.71842
8.71842
8.71842
8.71843
8.71843
8.71842
8.71841
8.71836
8.71841
8.71843
8.71843
8.71843
8.71843
8.71842
8.71841
8.71841
8.71841
8.71841
8.71841
8.71841
8.71841
8.7184
8.7184
8.71838
8.71838
8.71839
8.71839
8.71837
8.71835
8.7183
8.71818
8.71817
8.71813
8.71811
8.71815
8.71807
8.71809
8.71806
8.16617
8.16619
8.16619
8.16621
8.1662
8.16629
8.16624
8.16623
8.16624
8.16625
8.16629
8.16631
8.16655
8.16661
8.16662
8.16663
8.16663
8.16663
8.16665
8.1666
8.16663
8.16665
8.16664
8.16664
8.16664
8.16665
8.16665
8.16666
8.16665
8.16658
8.16664
8.16666
8.16667
8.16667
8.16668
8.16668
8.16668
8.16668
8.16667
8.16667
8.16668
8.16668
8.16667
8.16666
8.16666
8.16667
8.16666
8.16666
8.16665
8.16663
8.16659
8.1664
8.16633
8.16631
8.16629
8.16629
8.16632
8.16623
8.16624
8.16622
7.67825
7.67827
7.67827
7.67829
7.67829
7.67836
7.67836
7.67832
7.67833
7.67832
7.67837
7.67842
7.67868
7.67875
7.67876
7.67878
7.67878
7.6788
7.67874
7.67862
7.67873
7.67877
7.67877
7.67878
7.67879
7.67879
7.67879
7.67879
7.67878
7.6787
7.67879
7.67881
7.67882
7.67883
7.67884
7.67885
7.67886
7.67887
7.67888
7.67888
7.67889
7.67889
7.67888
7.67889
7.67889
7.67888
7.67889
7.67888
7.67889
7.67886
7.67874
7.67855
7.67845
7.67847
7.67847
7.67849
7.67846
7.67839
7.67839
7.67837
7.24396
7.24398
7.24398
7.244
7.244
7.24406
7.24408
7.24402
7.24403
7.24403
7.24406
7.24411
7.24435
7.24448
7.24449
7.24449
7.2445
7.24448
7.24427
7.2442
7.2444
7.24447
7.24447
7.24447
7.24447
7.24447
7.24447
7.24449
7.24448
7.2444
7.2445
7.24454
7.24457
7.24458
7.24459
7.24462
7.24464
7.24467
7.24468
7.24469
7.24471
7.24473
7.24473
7.24473
7.24474
7.24475
7.24475
7.24475
7.24474
7.24466
7.24443
7.24432
7.24424
7.24427
7.24429
7.24433
7.24427
7.2442
7.2442
7.24418
6.85505
6.85507
6.85506
6.85508
6.85507
6.85512
6.85516
6.8551
6.85508
6.85507
6.85507
6.8551
6.85521
6.85549
6.85555
6.85556
6.85555
6.85545
6.85522
6.85519
6.85541
6.85547
6.85547
6.85546
6.85547
6.85548
6.85549
6.8555
6.85549
6.85542
6.85554
6.85559
6.85563
6.85567
6.8557
6.85574
6.85578
6.85581
6.85584
6.85587
6.8559
6.85592
6.85594
6.85596
6.85597
6.85598
6.85599
6.85599
6.85599
6.85585
6.85561
6.8555
6.85546
6.85551
6.85555
6.85554
6.85548
6.85542
6.85542
6.8554
6.50486
6.50487
6.50486
6.50487
6.50487
6.5049
6.50494
6.50491
6.50486
6.50485
6.50482
6.50481
6.50491
6.50516
6.50528
6.5053
6.50526
6.50497
6.50486
6.50486
6.50508
6.50514
6.50513
6.50513
6.50513
6.50514
6.50515
6.50517
6.50518
6.50511
6.50524
6.50532
6.50537
6.50543
6.50549
6.50555
6.5056
6.50566
6.50571
6.50577
6.50581
6.50585
6.50588
6.50591
6.50594
6.50595
6.50596
6.50598
6.50591
6.50565
6.50552
6.50543
6.50543
6.5055
6.50551
6.5055
6.50545
6.50539
6.5054
6.50538
6.18796
6.18796
6.18796
6.18797
6.18795
6.18798
6.188
6.18799
6.18793
6.18788
6.18785
6.18779
6.18783
6.18794
6.18822
6.18829
6.18821
6.18788
6.18777
6.18777
6.188
6.18805
6.18803
6.18802
6.18802
6.18803
6.18805
6.18808
6.18809
6.18804
6.1882
6.18829
6.18838
6.18846
6.18854
6.18863
6.18871
6.18879
6.18887
6.18895
6.18902
6.18907
6.18912
6.18917
6.18921
6.18923
6.18926
6.18926
6.18913
6.18888
6.18876
6.18872
6.18876
6.1888
6.18879
6.18878
6.18874
6.18869
6.1887
6.18868
5.89989
5.89989
5.89988
5.89988
5.89987
5.89987
5.89989
5.89986
5.89983
5.89975
5.89969
5.89961
5.89961
5.89968
5.89999
5.90007
5.89991
5.89958
5.89949
5.89947
5.89969
5.89973
5.8997
5.89968
5.89968
5.89969
5.89971
5.89975
5.89978
5.89974
5.89992
5.90004
5.90016
5.90028
5.90039
5.90051
5.90063
5.90075
5.90085
5.90095
5.90104
5.90113
5.9012
5.90126
5.90131
5.90137
5.90139
5.90133
5.90106
5.90094
5.90086
5.90089
5.9009
5.90094
5.90093
5.90093
5.9009
5.90084
5.90084
5.90084
5.63693
5.63693
5.63691
5.63691
5.63688
5.63688
5.63689
5.63684
5.6368
5.63675
5.63665
5.63654
5.63652
5.63658
5.63682
5.63689
5.63656
5.63635
5.63626
5.63624
5.63644
5.63647
5.63643
5.6364
5.63639
5.63641
5.63644
5.63648
5.63653
5.63651
5.63672
5.63687
5.63702
5.63717
5.63733
5.63748
5.63764
5.63779
5.63795
5.63807
5.63819
5.6383
5.63841
5.63849
5.63856
5.63862
5.63865
5.63856
5.63829
5.63818
5.63817
5.63818
5.63819
5.63822
5.63822
5.63822
5.63818
5.63814
5.63814
5.63813
5.39598
5.39598
5.39597
5.39595
5.39593
5.39591
5.3959
5.39584
5.39578
5.39571
5.39562
5.39547
5.39538
5.39538
5.39544
5.39562
5.3953
5.39512
5.39502
5.39498
5.3951
5.39515
5.39512
5.39508
5.39506
5.39507
5.39511
5.39517
5.39524
5.39524
5.39548
5.39567
5.39586
5.39605
5.39625
5.39646
5.39666
5.39685
5.39704
5.39722
5.39737
5.39751
5.39764
5.39774
5.39783
5.39789
5.39786
5.39772
5.39756
5.39749
5.39748
5.3975
5.39751
5.39755
5.39755
5.39755
5.39751
5.39747
5.39747
5.39747
5.17443
5.17442
5.17441
5.17438
5.17434
5.17433
5.17429
5.17423
5.17415
5.17405
5.17395
5.17381
5.17366
5.17359
5.1736
5.17371
5.17345
5.17326
5.17312
5.17304
5.173
5.17314
5.17313
5.17308
5.17306
5.17307
5.17311
5.17319
5.17327
5.17331
5.17359
5.17382
5.17405
5.1743
5.17455
5.1748
5.17505
5.1753
5.17552
5.17574
5.17594
5.17611
5.17627
5.1764
5.1765
5.17654
5.17642
5.17636
5.17628
5.17622
5.17622
5.17624
5.17626
5.17629
5.17629
5.17629
5.17626
5.17622
5.17622
5.17621
4.97005
4.97004
4.97002
4.96999
4.96995
4.96991
4.96986
4.96978
4.96968
4.96957
4.96945
4.96928
4.96912
4.96895
4.96885
4.96879
4.96869
4.96854
4.96836
4.96824
4.96813
4.96828
4.96826
4.9682
4.96817
4.96818
4.96823
4.96832
4.96843
4.9685
4.96881
4.96909
4.96938
4.96968
4.96999
4.97031
4.97061
4.97091
4.9712
4.97146
4.9717
4.97192
4.97209
4.97226
4.97236
4.97238
4.97228
4.97228
4.97219
4.97214
4.97215
4.97218
4.9722
4.97222
4.97223
4.97222
4.9722
4.97216
4.97216
4.97215
4.78095
4.78095
4.78091
4.78087
4.78082
4.78077
4.7807
4.78061
4.78049
4.78036
4.7802
4.78001
4.77982
4.77963
4.77944
4.77932
4.77924
4.77906
4.77886
4.77869
4.77855
4.77867
4.77862
4.77854
4.77849
4.7785
4.77855
4.77866
4.7788
4.7789
4.77926
4.7796
4.77995
4.78031
4.78069
4.78107
4.78145
4.78181
4.78215
4.78247
4.78274
4.783
4.78321
4.78339
4.78345
4.78344
4.78345
4.78346
4.7834
4.78338
4.78339
4.78341
4.78343
4.78345
4.78346
4.78346
4.78343
4.7834
4.7834
4.78338
4.60549
4.60549
4.60545
4.6054
4.60534
4.60528
4.6052
4.60508
4.60495
4.60478
4.60461
4.60439
4.60417
4.60394
4.60372
4.60355
4.60343
4.60321
4.60295
4.60274
4.60256
4.60264
4.60256
4.60245
4.60239
4.60239
4.60245
4.60258
4.60274
4.60289
4.6033
4.60371
4.60412
4.60456
4.60501
4.60547
4.60592
4.60635
4.60675
4.60713
4.60746
4.60775
4.608
4.60816
4.60815
4.60822
4.60828
4.6083
4.60828
4.60826
4.60829
4.60831
4.60833
4.60835
4.60835
4.60835
4.60832
4.60829
4.60829
4.60828
4.44228
4.44227
4.44223
4.44218
4.4421
4.44203
4.44193
4.44179
4.44164
4.44145
4.44124
4.441
4.44075
4.44048
4.44022
4.44001
4.43983
4.43957
4.43926
4.439
4.43878
4.43875
4.43867
4.43855
4.43846
4.43845
4.43852
4.43866
4.43886
4.43906
4.43952
4.44
4.44049
4.44101
4.44155
4.4421
4.44263
4.44314
4.44361
4.44404
4.44442
4.44476
4.44504
4.44518
4.44521
4.4453
4.44538
4.44539
4.44538
4.4454
4.44544
4.44547
4.44548
4.4455
4.4455
4.44549
4.44546
4.44543
4.44543
4.44542
4.29009
4.29007
4.29004
4.28997
4.28989
4.2898
4.28968
4.28952
4.28935
4.28914
4.2889
4.28862
4.28834
4.28802
4.28772
4.28746
4.28724
4.28691
4.28655
4.28621
4.28593
4.28572
4.28571
4.28559
4.28549
4.28546
4.28553
4.28569
4.28592
4.28617
4.2867
4.28726
4.28784
4.28846
4.28909
4.28973
4.29036
4.29095
4.2915
4.29199
4.29244
4.29281
4.29304
4.29318
4.29331
4.29344
4.29354
4.29355
4.29356
4.2936
4.29363
4.29366
4.29366
4.29368
4.29368
4.29366
4.29363
4.2936
4.2936
4.29359
4.14786
4.14784
4.14779
4.14772
4.14763
4.14753
4.14739
4.14721
4.14701
4.14678
4.14651
4.1462
4.14587
4.14552
4.14516
4.14485
4.14457
4.14419
4.14377
4.14336
4.143
4.14269
4.14266
4.14252
4.14238
4.14234
4.1424
4.14258
4.14285
4.14316
4.14377
4.14442
4.1451
4.14583
4.14658
4.14732
4.14805
4.14873
4.14937
4.14993
4.15042
4.1508
4.15098
4.1512
4.1514
4.15157
4.15167
4.15169
4.15172
4.15176
4.15179
4.15181
4.15181
4.15182
4.15182
4.1518
4.15176
4.15173
4.15172
4.15171
4.01465
4.01463
4.01457
4.0145
4.0144
4.01428
4.01413
4.01393
4.01371
4.01344
4.01315
4.0128
4.01243
4.01203
4.01162
4.01125
4.0109
4.01046
4.00998
4.0095
4.00906
4.00869
4.00854
4.00838
4.00821
4.00814
4.00821
4.00841
4.00872
4.00909
4.00979
4.01053
4.01134
4.01219
4.01306
4.01394
4.01477
4.01556
4.01627
4.0169
4.01745
4.01785
4.01806
4.01833
4.01857
4.01874
4.01881
4.01885
4.01891
4.01896
4.01898
4.01899
4.01899
4.019
4.01898
4.01896
4.01892
4.01889
4.01887
4.01886
3.88965
3.88962
3.88957
3.88948
3.88936
3.88924
3.88907
3.88885
3.88861
3.88831
3.88799
3.8876
3.88719
3.88675
3.88629
3.88584
3.88541
3.88491
3.88436
3.88381
3.88327
3.8828
3.88245
3.88233
3.88215
3.88206
3.88211
3.88233
3.88269
3.88314
3.88393
3.8848
3.88574
3.88674
3.88776
3.88877
3.88972
3.89062
3.8914
3.89206
3.89263
3.89304
3.89339
3.8937
3.89397
3.89413
3.8942
3.89426
3.89432
3.89437
3.89439
3.89439
3.89438
3.89437
3.89435
3.89431
3.89427
3.89423
3.89422
3.89421
3.77213
3.7721
3.77204
3.77195
3.77182
3.77168
3.7715
3.77126
3.77099
3.77067
3.77032
3.7699
3.76944
3.76895
3.76842
3.76787
3.76735
3.76681
3.7662
3.76556
3.76494
3.76436
3.76388
3.76372
3.76349
3.76336
3.7634
3.76363
3.76403
3.76457
3.76547
3.76649
3.76759
3.76875
3.76994
3.7711
3.77219
3.77317
3.77403
3.77478
3.77532
3.77582
3.77625
3.77661
3.77687
3.777
3.77709
3.77717
3.77723
3.77727
3.77727
3.77726
3.77724
3.77722
3.77719
3.77715
3.7771
3.77706
3.77705
3.77703
3.66145
3.66142
3.66136
3.66126
3.66112
3.66096
3.66077
3.66052
3.66022
3.65988
3.65949
3.65904
3.65854
3.658
3.6574
3.65678
3.65617
3.65557
3.65487
3.65413
3.6534
3.65273
3.65215
3.65185
3.65157
3.65138
3.6514
3.65164
3.65211
3.65275
3.65377
3.65496
3.65625
3.6576
3.65898
3.66032
3.66153
3.66261
3.66357
3.66439
3.665
3.66555
3.66602
3.66639
3.66663
3.66676
3.66685
3.66694
3.66699
3.66701
3.667
3.66697
3.66694
3.66691
3.66686
3.66681
3.66676
3.66672
3.66669
3.66668
3.55704
3.55701
3.55694
3.55684
3.55669
3.55653
3.55631
3.55605
3.55573
3.55537
3.55494
3.55445
3.55392
3.55333
3.55268
3.55198
3.55129
3.55058
3.5498
3.54896
3.54812
3.54731
3.54662
3.54611
3.54588
3.54563
3.54561
3.54587
3.5464
3.54714
3.54832
3.54971
3.55122
3.55281
3.5544
3.55593
3.5572
3.55839
3.55939
3.56027
3.56101
3.56162
3.56211
3.56245
3.56266
3.56281
3.56291
3.56299
3.56302
3.56302
3.563
3.56295
3.5629
3.56285
3.56279
3.56274
3.56268
3.56263
3.5626
3.56258
3.4584
3.45837
3.45829
3.45818
3.45803
3.45785
3.45763
3.45735
3.45701
3.45663
3.45618
3.45565
3.45508
3.45444
3.45373
3.45296
3.45215
3.45132
3.45047
3.44955
3.44859
3.44765
3.44682
3.44625
3.49429
3.49405
3.494
3.49425
3.49482
3.49561
3.49689
3.49839
3.50004
3.50176
3.5035
3.50514
3.45955
3.46005
3.46113
3.46209
3.46289
3.46353
3.464
3.4643
3.4645
3.46465
3.46475
3.46481
3.46481
3.46479
3.46474
3.46468
3.46461
3.46454
3.46447
3.4644
3.46433
3.46428
3.46424
3.46422
3.36506
3.36503
3.36495
3.36484
3.36468
3.36449
3.36426
3.36396
3.36361
3.3632
3.36273
3.36218
3.36156
3.36088
3.36012
3.35927
3.35836
3.35741
3.35645
3.35545
3.35437
3.3533
3.35248
3.39747
3.39536
3.3952
3.39507
3.3953
3.39592
3.39685
3.39833
3.4001
3.40205
3.4041
3.40614
3.40797
3.41164
3.36794
3.36841
3.36939
3.3702
3.37082
3.37126
3.37152
3.37171
3.37184
3.37192
3.37194
3.37191
3.37186
3.37179
3.3717
3.37161
3.37152
3.37143
3.37135
3.37127
3.37121
3.37117
3.37115
3.27663
3.27658
3.27651
3.27639
3.27623
3.27604
3.27579
3.27549
3.27512
3.2747
3.2742
3.27362
3.27298
3.27225
3.27143
3.27053
3.26954
3.26849
3.2674
3.26629
3.26509
3.2639
3.26306
3.30392
3.3019
3.32431
3.32415
3.32436
3.32502
3.32605
3.32769
3.32968
3.33189
3.33422
3.33655
3.31686
3.31998
3.28085
3.28078
3.28173
3.28251
3.28307
3.28344
3.28368
3.28385
3.28395
3.28398
3.28396
3.2839
3.28382
3.28371
3.2836
3.28348
3.28338
3.28327
3.28318
3.28309
3.28301
3.28297
3.28294
3.19272
3.19267
3.1926
3.19248
3.19232
3.19212
3.19187
3.19155
3.19118
3.19074
3.19023
3.18963
3.18895
3.18819
3.18733
3.18637
3.18531
3.18416
3.18294
3.18168
3.18038
3.17911
3.17832
3.21526
3.2134
3.23353
3.23349
3.23372
3.23445
3.23564
3.23741
3.23966
3.24225
3.24501
3.24772
3.23139
3.23344
3.19856
3.19794
3.19875
3.19944
3.1999
3.20021
3.20042
3.20055
3.2006
3.20058
3.20051
3.20041
3.20029
3.20015
3.2
3.19986
3.19973
3.19961
3.1995
3.1994
3.19932
3.19927
3.19924
3.11301
3.11296
3.11289
3.11277
3.1126
3.1124
3.11215
3.11183
3.11145
3.111
3.11047
3.10986
3.10916
3.10837
3.10747
3.10647
3.10535
3.10412
3.10279
3.10138
3.09995
3.09863
3.09795
3.13134
3.12956
3.14733
3.1477
3.14819
3.14918
3.15061
3.15257
3.155
3.15786
3.16094
3.16412
3.15079
3.15189
3.12076
3.11956
3.12013
3.12067
3.12104
3.12128
3.12143
3.12148
3.12146
3.12137
3.12125
3.1211
3.12093
3.12076
3.12058
3.12041
3.12026
3.12012
3.11999
3.11988
3.11979
3.11974
3.1197
3.0372
3.03715
3.03708
3.03696
3.03679
3.03659
3.03634
3.03602
3.03563
3.03518
3.03465
3.03403
3.03331
3.0325
3.03158
3.03054
3.02937
3.02809
3.02667
3.02516
3.0236
3.02222
3.02168
3.05189
3.05037
3.06585
3.06691
3.06846
3.07044
3.07269
3.07483
3.07698
3.07946
3.08231
3.08555
3.07522
3.07515
3.04715
3.04535
3.04556
3.04594
3.04619
3.04632
3.04636
3.04631
3.0462
3.04605
3.04587
3.04566
3.04545
3.04523
3.04502
3.04483
3.04465
3.04449
3.04435
3.04422
3.04412
3.04406
3.04402
2.96502
2.96497
2.96489
2.96477
2.96461
2.96441
2.96416
2.96384
2.96346
2.96301
2.96248
2.96185
2.96114
2.96032
2.95938
2.95831
2.95712
2.95579
2.95434
2.95276
2.95114
2.94969
2.94929
2.97676
2.97568
2.98924
2.99275
2.99691
3.00302
3.00898
3.01156
3.01088
3.00987
3.01035
3.01214
3.00455
3.00303
2.9775
2.97514
2.9749
2.97502
2.97506
2.97503
2.97493
2.97477
2.97456
2.97433
2.97408
2.97382
2.97356
2.9733
2.97306
2.97283
2.97263
2.97245
2.97229
2.97215
2.97204
2.97198
2.97193
2.89621
2.89615
2.89608
2.89597
2.89581
2.89562
2.89537
2.89506
2.89469
2.89424
2.89372
2.8931
2.89239
2.89157
2.89063
2.88956
2.88836
2.88702
2.88555
2.88395
2.88235
2.88086
2.88062
2.90587
2.90532
2.91928
2.92799
2.94144
2.9667
2.99534
3.00011
2.97983
2.95921
2.94845
2.94491
2.93859
2.93543
2.91154
2.90869
2.90784
2.9076
2.90737
2.90714
2.90687
2.90658
2.90627
2.90596
2.90563
2.90531
2.905
2.9047
2.90442
2.90417
2.90394
2.90374
2.90357
2.90342
2.9033
2.90323
2.90318
2.83054
2.83049
2.83042
2.83031
2.83016
2.82997
2.82974
2.82943
2.82908
2.82864
2.82813
2.82753
2.82683
2.82603
2.82511
2.82406
2.82287
2.82155
2.8201
2.81853
2.81702
2.81553
2.81574
2.83941
2.83943
2.85799
2.87791
2.92584
3.07099
3.3167
3.32943
3.11188
2.96303
2.90578
2.8865
2.87649
2.87224
2.84907
2.84569
2.84408
2.8434
2.84285
2.84238
2.84194
2.84151
2.84109
2.84068
2.84029
2.83991
2.83955
2.83921
2.83889
2.83861
2.83836
2.83814
2.83795
2.83779
2.83767
2.83759
2.83754
2.76782
2.76777
2.7677
2.7676
2.76746
2.76728
2.76705
2.76677
2.76642
2.76601
2.76552
2.76495
2.76428
2.7635
2.76262
2.7616
2.76046
2.75918
2.75779
2.75631
2.75495
2.7535
2.75458
2.7775
2.77906
2.80605
2.84596
3.02362
3.88501
8.3028
7.9016
4.46061
3.15484
2.90198
2.8409
2.81757
2.81354
2.78958
2.78577
2.78333
2.78213
2.78123
2.78051
2.77988
2.77932
2.77879
2.77829
2.77783
2.77739
2.77698
2.7766
2.77626
2.77595
2.77567
2.77544
2.77523
2.77506
2.77493
2.77485
2.77479
2.70785
2.7078
2.70773
2.70764
2.70751
2.70734
2.70713
2.70686
2.70654
2.70616
2.7057
2.70515
2.70452
2.70379
2.70296
2.702
2.70092
2.69974
2.69846
2.69711
2.69595
2.69465
2.6972
2.71985
2.72431
2.7603
2.82252
3.30205
12.7688
14.5403
3.80346
2.95507
2.81245
2.76087
2.7589
2.73267
2.72852
2.72524
2.7235
2.72223
2.72127
2.72046
2.71976
2.71913
2.71856
2.71803
2.71754
2.71709
2.71668
2.71631
2.71597
2.71568
2.71543
2.71521
2.71503
2.7149
2.71481
2.71476
2.65045
2.6504
2.65034
2.65026
2.65014
2.64998
2.64979
2.64955
2.64925
2.6489
2.64847
2.64797
2.64739
2.64672
2.64595
2.64507
2.6441
2.64303
2.64191
2.64077
2.63987
2.63901
2.6439
2.66647
2.67491
2.71568
2.79276
3.58349
76.2667
624.431
18.6305
4.45434
3.03598
2.79907
2.70665
2.70813
2.67807
2.67363
2.6696
2.66733
2.66573
2.66453
2.66356
2.66273
2.66201
2.66136
2.66077
2.66024
2.65975
2.6593
2.6589
2.65854
2.65823
2.65797
2.65774
2.65755
2.65741
2.65732
2.65726
2.59547
2.59542
2.59536
2.59529
2.59518
2.59505
2.59487
2.59466
2.59439
2.59407
2.59369
2.59324
2.59271
2.59211
2.59143
2.59065
2.5898
2.58889
2.58797
2.5871
2.58656
2.58674
2.59547
2.61842
2.63388
2.67959
2.80361
4.60257
159.759
179.339
247.57
12.8856
4.62588
3.0994
2.79444
2.65784
2.66061
2.62566
2.62073
2.61614
2.61335
2.61146
2.61006
2.60896
2.60803
2.60722
2.60651
2.60587
2.60529
2.60477
2.6043
2.60387
2.60349
2.60317
2.60288
2.60265
2.60245
2.6023
2.60221
2.60215
2.54275
2.5427
2.54266
2.54259
2.5425
2.54238
2.54223
2.54204
2.5418
2.54153
2.54119
2.54079
2.54034
2.53982
2.53923
2.53857
2.53786
2.53714
2.53646
2.53592
2.53591
2.53811
2.55279
2.57767
2.61309
2.68556
3.23082
16.2652
90.1784
118.979
74.8159
9.59349
4.4191
3.11807
2.78671
2.61762
2.6151
2.57544
2.56955
2.56456
2.56135
2.55924
2.5577
2.55648
2.55548
2.55461
2.55385
2.55317
2.55256
2.55201
2.55151
2.55106
2.55066
2.55032
2.55003
2.54978
2.54958
2.54943
2.54933
2.54926
2.49216
2.49211
2.49207
2.49202
2.49194
2.49184
2.49172
2.49156
2.49136
2.49112
2.49084
2.4905
2.49012
2.48968
2.48919
2.48865
2.48809
2.48755
2.48715
2.48705
2.48786
2.49321
2.51603
2.54606
2.6245
2.778
7.65608
69.5921
75.4207
58.4087
23.7878
7.48851
4.15331
3.10387
2.76242
2.58688
2.57036
2.52745
2.51991
2.51463
2.51114
2.50891
2.50727
2.50599
2.50494
2.50403
2.50324
2.50253
2.50189
2.50131
2.5008
2.50033
2.49992
2.49957
2.49927
2.49901
2.4988
2.49864
2.49854
2.49847
2.44357
2.44352
2.4435
2.44345
2.44339
2.44331
2.44321
2.44308
2.44292
2.44272
2.4425
2.44222
2.44191
2.44155
2.44115
2.44071
2.44031
2.44004
2.43998
2.44037
2.44219
2.45151
2.48355
2.52227
2.65576
3.02475
15.472
64.314
32.3056
20.7141
11.0444
6.12487
3.95164
3.07941
2.72248
2.56312
2.52586
2.48174
2.47177
2.46622
2.46259
2.46033
2.45866
2.45737
2.45629
2.45537
2.45455
2.45382
2.45317
2.45258
2.45204
2.45157
2.45115
2.45078
2.45047
2.45021
2.45
2.44983
2.44973
2.44965
2.39687
2.39682
2.3968
2.39677
2.39673
2.39667
2.39659
2.39649
2.39637
2.39622
2.39604
2.39583
2.39557
2.39527
2.39496
2.39469
2.3945
2.3945
2.39476
2.39565
2.39853
2.41202
2.45261
2.50123
2.67881
3.30901
18.75
57.6683
21.6122
11.0712
7.63865
5.47946
3.88919
3.0858
2.68387
2.54031
2.48197
2.43799
2.42503
2.41919
2.4156
2.41336
2.41172
2.41048
2.40942
2.4085
2.40768
2.40694
2.40628
2.40567
2.40513
2.40465
2.40422
2.40385
2.40353
2.40326
2.40304
2.40288
2.40277
2.40269
2.35195
2.3519
2.35189
2.35187
2.35184
2.3518
2.35175
2.35168
2.35159
2.35149
2.35135
2.35118
2.35098
2.35077
2.3506
2.35049
2.35049
2.35071
2.35127
2.35262
2.3565
2.37371
2.421
2.47808
2.67784
3.42334
18.4556
52.9001
27.2594
12.5828
8.80522
6.09572
4.23717
3.21598
2.68345
2.50776
2.43938
2.39608
2.37972
2.3736
2.3702
2.36805
2.36647
2.36524
2.36423
2.36333
2.36252
2.36179
2.36112
2.36051
2.35996
2.35947
2.35904
2.35866
2.35834
2.35806
2.35784
2.35768
2.35757
2.35749
2.3087
2.30866
2.30865
2.30864
2.30863
2.30861
2.30858
2.30854
2.30849
2.30841
2.30829
2.30817
2.30806
2.30797
2.30792
2.30794
2.30809
2.30853
2.30934
2.31107
2.31578
2.33585
2.38758
2.45004
2.65599
3.41705
16.7665
47.1526
35.3706
17.228
10.2562
7.78529
6.19574
4.32694
2.81854
2.46259
2.39916
2.35528
2.3359
2.32962
2.32634
2.3243
2.32282
2.32162
2.32061
2.31974
2.31897
2.31826
2.31759
2.31698
2.31643
2.31594
2.3155
2.31512
2.31479
2.31452
2.3143
2.31413
2.31402
2.31393
2.26703
2.26699
2.26699
2.267
2.26699
2.267
2.26699
2.26698
2.26695
2.26689
2.26682
2.26677
2.26674
2.26674
2.26678
2.26691
2.26721
2.26781
2.26882
2.27083
2.27616
2.29804
2.35227
2.41761
2.62423
3.38054
14.602
40.7642
39.8703
24.598
14.0489
9.23486
7.18704
5.85417
3.41263
2.46476
2.36217
2.31505
2.29349
2.28722
2.28407
2.28205
2.28068
2.27955
2.27857
2.27771
2.27695
2.27626
2.27561
2.27501
2.27446
2.27396
2.27352
2.27314
2.27281
2.27254
2.27231
2.27214
2.27203
2.27194
2.22687
2.22683
2.22684
2.22685
2.22686
2.22688
2.22689
2.22689
2.22688
2.22686
2.22686
2.22687
2.2269
2.22697
2.22709
2.22732
2.22772
2.22846
2.22961
2.23178
2.23756
2.26022
2.31572
2.38267
2.58683
3.34193
12.4462
34.5148
40.3649
31.4171
20.7486
13.124
8.6119
6.53052
4.1923
2.58574
2.32663
2.27522
2.25258
2.24634
2.24333
2.24135
2.23999
2.23892
2.23799
2.23715
2.2364
2.23572
2.23509
2.2345
2.23396
2.23346
2.23302
2.23264
2.23231
2.23203
2.2318
2.23163
2.23152
2.23144
2.18812
2.18808
2.18809
2.18811
2.18814
2.18817
2.18818
2.1882
2.18823
2.18826
2.18831
2.18837
2.18845
2.18858
2.18876
2.18907
2.18955
2.19038
2.19163
2.19389
2.19992
2.22276
2.27824
2.3463
2.54691
3.31734
10.5456
28.8642
37.951
35.2719
27.4699
18.6116
10.7088
6.84944
4.61804
2.77776
2.29383
2.23593
2.21315
2.20697
2.20401
2.20211
2.20077
2.19969
2.19877
2.19794
2.19723
2.19657
2.19595
2.19538
2.19484
2.19435
2.19392
2.19353
2.1932
2.19292
2.1927
2.19253
2.19242
2.19233
2.15071
2.15067
2.15069
2.15072
2.15075
2.15078
2.15082
2.15087
2.15093
2.151
2.15108
2.15118
2.15131
2.15148
2.15172
2.15208
2.15263
2.15349
2.1548
2.1571
2.16322
2.18581
2.24064
2.30988
2.50589
3.32207
8.99808
24.0365
33.8106
35.5265
30.9151
22.221
12.0849
6.89438
4.75385
2.94783
2.26555
2.19754
2.1751
2.16901
2.16608
2.16423
2.16292
2.16185
2.16095
2.16012
2.15938
2.15874
2.15813
2.15757
2.15705
2.15657
2.15613
2.15575
2.15542
2.15515
2.15492
2.15475
2.15464
2.15455
2.11457
2.11453
2.11456
2.11459
2.11463
2.11467
2.11473
2.11481
2.11489
2.11499
2.11511
2.11524
2.11541
2.11562
2.11591
2.11631
2.11687
2.11775
2.11911
2.1214
2.12749
2.14955
2.20372
2.27464
2.46473
3.35361
8.01738
20.1846
29.0711
33.5168
31.4109
22.6438
12.1344
6.72761
4.73765
3.04974
2.2399
2.16031
2.13835
2.13238
2.12947
2.12764
2.12634
2.12529
2.1244
2.12358
2.12284
2.12216
2.12157
2.12102
2.1205
2.12004
2.11961
2.11923
2.1189
2.11863
2.1184
2.11823
2.11812
2.11803
2.07964
2.07961
2.07963
2.07967
2.07971
2.07978
2.07986
2.07995
2.08006
2.08018
2.08032
2.08049
2.08068
2.08093
2.08124
2.08167
2.08224
2.08314
2.08453
2.08677
2.09275
2.1142
2.16801
2.24122
2.42458
3.38339
7.81109
17.2904
25.8838
31.9504
29.295
21.2388
11.5378
6.49906
4.66155
3.08282
2.21417
2.12445
2.10286
2.09698
2.09409
2.09227
2.09098
2.08993
2.08904
2.08824
2.0875
2.08682
2.0862
2.08566
2.08515
2.08469
2.08428
2.08391
2.08358
2.08331
2.08308
2.08292
2.0828
2.08271
2.04586
2.04582
2.04585
2.04589
2.04595
2.04603
2.04613
2.04624
2.04636
2.04651
2.04667
2.04686
2.04708
2.04735
2.04769
2.04812
2.04871
2.04963
2.05101
2.05319
2.05907
2.08004
2.13375
2.20919
2.38549
3.41366
8.72088
16.5231
25.6574
30.1511
26.7285
19.4623
10.7731
6.2483
4.56199
3.0665
2.18706
2.09006
2.06851
2.06274
2.05987
2.05806
2.05677
2.05572
2.05484
2.05403
2.0533
2.05262
2.05199
2.05143
2.05093
2.05048
2.05007
2.04971
2.04939
2.04912
2.0489
2.04874
2.04863
2.04853
2.01316
2.01312
2.01315
2.01321
2.01328
2.01337
2.01348
2.0136
2.01375
2.01391
2.01409
2.0143
2.01455
2.01484
2.01519
2.01562
2.01624
2.01716
2.01852
2.02065
2.02644
2.04711
2.10096
2.1778
2.34888
3.52943
10.4318
18.1238
25.4498
27.8008
24.3949
17.7253
9.99885
5.99013
4.45506
3.02308
2.16027
2.05714
2.03525
2.02958
2.02675
2.02493
2.02365
2.0226
2.02171
2.02091
2.02018
2.01951
2.01888
2.01831
2.01779
2.01735
2.01695
2.01659
2.01629
2.01602
2.0158
2.01564
2.01553
2.01543
1.9815
1.98147
1.9815
1.98156
1.98164
1.98174
1.98186
1.982
1.98216
1.98234
1.98254
1.98277
1.98303
1.98334
1.9837
1.98414
1.98478
1.98569
1.98703
1.98913
1.99485
2.01536
2.06933
2.1466
2.31926
3.73819
12.1387
19.0696
24.7567
25.1347
22.2136
16.1012
9.25762
5.73298
4.34849
2.96816
2.13426
2.0257
2.00301
1.99744
1.99467
1.99284
1.99156
1.9905
1.98962
1.98882
1.98809
1.98742
1.9868
1.98623
1.98571
1.98525
1.98486
1.98451
1.98421
1.98395
1.98374
1.98357
1.98347
1.98337
1.95084
1.9508
1.95084
1.9509
1.95099
1.9511
1.95123
1.95138
1.95155
1.95175
1.95196
1.9522
1.95248
1.95279
1.95315
1.95363
1.95428
1.95519
1.95651
1.95858
1.96426
1.98466
2.03864
2.11558
2.29632
3.96518
13.2678
18.9857
23.2574
22.8186
20.1772
14.5914
8.55683
5.47815
4.24443
2.9108
2.10878
1.99563
1.97173
1.96628
1.96355
1.96172
1.96045
1.95939
1.9585
1.9577
1.95698
1.95631
1.95569
1.95513
1.95461
1.95415
1.95374
1.95341
1.95311
1.95287
1.95266
1.95249
1.95239
1.95229
1.92111
1.92108
1.92112
1.92119
1.92128
1.9214
1.92154
1.9217
1.92188
1.92209
1.92232
1.92257
1.92286
1.92316
1.92355
1.92405
1.9247
1.92561
1.92691
1.92897
1.93462
1.9549
2.00886
2.08511
2.28123
4.14225
13.6456
18.2576
21.4099
20.7616
18.2972
13.1957
7.89781
5.22438
4.14494
2.85505
2.08342
1.96675
1.94138
1.93604
1.93336
1.93153
1.93027
1.9292
1.92832
1.92752
1.92679
1.92613
1.92552
1.92496
1.92445
1.92399
1.92359
1.92324
1.92295
1.92271
1.92251
1.92235
1.92225
1.92215
1.89228
1.89225
1.8923
1.89237
1.89247
1.89259
1.89274
1.89291
1.8931
1.89332
1.89356
1.89383
1.89412
1.89444
1.89484
1.89535
1.89601
1.89691
1.89819
1.90024
1.90587
1.926
1.98001
2.05547
2.27134
4.25165
13.4925
17.2209
19.6407
18.9762
16.5872
11.9167
7.27802
4.97256
4.05276
2.80208
2.05788
1.93878
1.9119
1.90669
1.90404
1.90222
1.90097
1.8999
1.89902
1.89822
1.8975
1.89684
1.89624
1.89569
1.89518
1.89473
1.89433
1.89398
1.89368
1.89345
1.89326
1.89311
1.89301
1.89291
1.86431
1.86428
1.86433
1.86441
1.86451
1.86464
1.8648
1.86497
1.86518
1.8654
1.86565
1.86593
1.86621
1.86656
1.86698
1.8675
1.86815
1.86905
1.87032
1.87235
1.87795
1.89789
1.95213
2.02689
2.26804
4.30696
13.0637
16.1272
18.096
17.4422
15.0634
10.7644
6.70274
4.72648
3.96769
2.75216
2.03194
1.91144
1.88325
1.87817
1.87556
1.87375
1.87251
1.87144
1.87057
1.86977
1.86906
1.86841
1.86781
1.86726
1.86677
1.86632
1.86593
1.86558
1.86528
1.86504
1.86486
1.86472
1.86462
1.86452
1.83716
1.83713
1.83718
1.83726
1.83737
1.83751
1.83767
1.83785
1.83807
1.8383
1.83856
1.83884
1.83914
1.8395
1.83993
1.84045
1.84111
1.842
1.84325
1.84528
1.85083
1.87055
1.92509
1.99923
2.27364
5.01716
12.9706
15.2937
16.7248
15.882
13.1333
9.08818
5.8094
4.35246
3.80945
2.70605
2.00524
1.88453
1.8554
1.85045
1.84786
1.84608
1.84484
1.84378
1.84292
1.84213
1.84143
1.84078
1.84019
1.83965
1.83917
1.83873
1.83834
1.838
1.83771
1.83747
1.83728
1.83714
1.83705
1.83696
1.81079
1.81077
1.81082
1.8109
1.81101
1.81116
1.81132
1.81151
1.81173
1.81198
1.81224
1.81252
1.81284
1.81321
1.81365
1.81417
1.81483
1.81572
1.81696
1.81897
1.82448
1.84397
1.89842
1.97698
2.28745
5.00229
12.4888
14.5805
16.0015
15.1551
12.3181
8.43674
5.46119
4.18052
3.7487
2.66408
1.93164
1.85775
1.82831
1.82349
1.82092
1.81917
1.81794
1.81689
1.81604
1.81526
1.81457
1.81393
1.81335
1.81282
1.81235
1.81191
1.81153
1.8112
1.81092
1.81068
1.81049
1.81035
1.81027
1.81017
1.78518
1.78515
1.7852
1.78529
1.78541
1.78555
1.78573
1.78592
1.78615
1.7864
1.78666
1.78695
1.78728
1.78767
1.78811
1.78864
1.7893
1.79019
1.79141
1.7934
1.79886
1.81812
1.87261
1.95541
2.84169
6.72142
12.2513
14.0011
15.0375
13.7183
10.505
6.95664
4.70936
3.87839
3.45048
2.40397
1.90619
1.83129
1.80193
1.79725
1.79469
1.79299
1.79177
1.79074
1.7899
1.78913
1.78845
1.78783
1.78726
1.78674
1.78627
1.78585
1.78548
1.78515
1.78487
1.78464
1.78445
1.78432
1.78424
1.78414
1.76027
1.76025
1.76031
1.7604
1.76052
1.76066
1.76084
1.76105
1.76128
1.76153
1.76179
1.7621
1.76244
1.76283
1.76328
1.76382
1.76448
1.76536
1.76657
1.76854
1.77395
1.793
1.84736
1.93564
2.86042
6.6263
11.8889
13.3914
14.5814
13.3088
10.1076
6.65241
4.52839
3.77199
3.37309
2.36586
1.88046
1.80511
1.77622
1.77169
1.76915
1.7675
1.7663
1.76529
1.76446
1.76371
1.76305
1.76244
1.76188
1.76137
1.76092
1.7605
1.76014
1.75982
1.75955
1.75932
1.75914
1.759
1.75892
1.75883
1.73606
1.73604
1.7361
1.73619
1.73631
1.73646
1.73665
1.73685
1.73709
1.73734
1.73762
1.73793
1.73829
1.73868
1.73913
1.73967
1.74033
1.74122
1.7424
1.74437
1.74972
1.76855
1.82266
1.91785
2.87775
6.54154
11.4979
12.8154
14.1159
12.9433
9.78597
6.3969
4.36596
3.67166
3.29912
2.3293
1.85452
1.7793
1.75115
1.74677
1.74427
1.74268
1.7415
1.74051
1.73971
1.73897
1.73832
1.73773
1.73719
1.73669
1.73625
1.73584
1.73549
1.73518
1.73491
1.73469
1.73452
1.73438
1.7343
1.73421
1.7125
1.71248
1.71254
1.71264
1.71276
1.71292
1.71311
1.71332
1.71356
1.71381
1.7141
1.71442
1.71478
1.71518
1.71564
1.71618
1.71684
1.71772
1.7189
1.72085
1.72614
1.74475
1.7985
1.90158
2.89218
6.46212
11.0787
12.2747
13.6461
12.6041
9.51832
6.17971
4.21954
3.5775
3.22881
2.29446
1.82867
1.75397
1.72669
1.72247
1.72003
1.7185
1.71734
1.71638
1.7156
1.71489
1.71425
1.71368
1.71315
1.71267
1.71224
1.71185
1.7115
1.7112
1.71094
1.71073
1.71055
1.71043
1.71034
1.71025
1.68958
1.68956
1.68962
1.68972
1.68984
1.69
1.6902
1.69041
1.69065
1.69091
1.69121
1.69154
1.6919
1.69231
1.69277
1.69332
1.69398
1.69486
1.69602
1.69795
1.7032
1.72158
1.77488
1.88629
2.90232
6.38465
10.6345
11.7698
13.1763
12.2779
9.2886
5.99408
4.08766
3.48952
3.16222
2.26131
1.80317
1.72922
1.70281
1.69877
1.6964
1.69495
1.6938
1.69288
1.69212
1.69143
1.69081
1.69026
1.68975
1.68928
1.68886
1.68848
1.68815
1.68786
1.68761
1.6874
1.68723
1.6871
1.68702
1.68693
1.66726
1.66724
1.6673
1.6674
1.66753
1.6677