/*--------------------------------*- C++ -*----------------------------------*\
  =========                 |
  \\      /  F ield         | OpenFOAM: The Open Source CFD Toolbox
   \\    /   O peration     | Website:  https://openfoam.org
    \\  /    A nd           | Version:  12
     \\/     M anipulation  |
\*---------------------------------------------------------------------------*/
FoamFile
{
    format      ascii;
    class       volScalarField;
    location    "300";
    object      p;
}
// * * * * * * * * * * * * * * * * * * * * * * * * * * * * * * * * * * * * * //

dimensions      [0 2 -2 0 0 0 0];

internalField   nonuniform List<scalar> 
16227
(
0.100187
0.100196
0.100213
0.100237
0.100265
0.100293
0.100318
0.100335
0.100337
0.100317
0.10027
0.100185
0.100055
0.0998691
0.0996184
0.0992921
0.0988798
0.0983707
0.0977546
0.0970215
0.0961622
0.0951684
0.0940334
0.0927516
0.0913198
0.0897362
0.0880019
0.0861198
0.0840956
0.0819373
0.0796552
0.0772616
0.074771
0.0721991
0.069563
0.0668806
0.0641705
0.061451
0.0587404
0.0560564
0.0534159
0.0508347
0.0483273
0.0459071
0.043586
0.0413745
0.0392818
0.0373159
0.0354834
0.0337899
0.0322401
0.0308376
0.0295856
0.0284861
0.027541
0.0267518
0.0261196
0.0256451
0.0253285
0.02517
0.10018
0.10019
0.100208
0.100234
0.100264
0.100296
0.100325
0.100345
0.100352
0.100339
0.100297
0.100219
0.100095
0.0999173
0.0996742
0.0993558
0.0989512
0.0984498
0.0978411
0.0971147
0.0962615
0.0952728
0.0941417
0.0928626
0.0914318
0.0898477
0.088111
0.0862248
0.0841947
0.0820286
0.0797371
0.0773329
0.0748305
0.072246
0.0695966
0.0669007
0.0641769
0.0614439
0.0587203
0.0560239
0.0533717
0.0507797
0.0482626
0.0458336
0.0435048
0.0412865
0.039188
0.0372172
0.0353805
0.0336837
0.0321311
0.0307265
0.0294726
0.0283717
0.0274258
0.026636
0.0260034
0.0255285
0.0252118
0.0250532
0.100165
0.100176
0.100197
0.100227
0.100263
0.100301
0.100338
0.100368
0.100386
0.100385
0.100356
0.100293
0.100185
0.100023
0.0997974
0.0994962
0.0991091
0.0986247
0.0980323
0.0973211
0.0964813
0.0955041
0.0943818
0.0931085
0.0916801
0.0900948
0.088353
0.0864577
0.0844144
0.0822312
0.079919
0.0774914
0.074963
0.0723504
0.0696717
0.0669456
0.0641914
0.0614286
0.058676
0.0559521
0.0532741
0.0506583
0.0481195
0.0456712
0.0433252
0.041092
0.0389807
0.036999
0.0351534
0.0334491
0.0318905
0.0304809
0.0292231
0.0281195
0.0271716
0.0263803
0.0257466
0.025271
0.0249538
0.0247951
0.100137
0.10015
0.100176
0.100213
0.100258
0.100308
0.100359
0.100405
0.100441
0.100461
0.100455
0.100416
0.100335
0.100201
0.100003
0.0997317
0.0993741
0.0989188
0.0983542
0.097669
0.0968522
0.0958945
0.0947874
0.0935243
0.0921003
0.090513
0.0887626
0.086852
0.0847866
0.0825746
0.0802277
0.0777602
0.0751876
0.0725274
0.0697987
0.0670214
0.0642158
0.0614024
0.0586009
0.0558305
0.053109
0.0504531
0.0478779
0.0453969
0.0430222
0.0407641
0.0386315
0.0366318
0.0347712
0.0330546
0.031486
0.0300683
0.0288042
0.0276962
0.0267449
0.0259512
0.0253159
0.0248391
0.0245212
0.0243621
0.100095
0.100112
0.100144
0.10019
0.100248
0.100314
0.100384
0.100453
0.100515
0.100563
0.100589
0.100584
0.100539
0.100444
0.100287
0.100057
0.0997411
0.0993271
0.0988023
0.0981537
0.0973697
0.0964401
0.0953551
0.0941067
0.0926895
0.0911001
0.0893381
0.0874062
0.0853098
0.0830576
0.0806617
0.078138
0.075503
0.0727756
0.0699763
0.0671268
0.0642488
0.0613642
0.058494
0.0556584
0.0528761
0.0501644
0.0475386
0.0450126
0.0425983
0.0403059
0.038144
0.0361197
0.0342388
0.0325056
0.0309233
0.029495
0.028223
0.0271091
0.0261534
0.0253566
0.0247191
0.0242409
0.023922
0.0237625
0.100037
0.100058
0.100098
0.100156
0.10023
0.100316
0.10041
0.100507
0.100601
0.100685
0.100752
0.100791
0.100793
0.100747
0.100642
0.100465
0.100203
0.0998428
0.0993697
0.0987691
0.0980285
0.0971362
0.0960807
0.0948528
0.0934454
0.0918542
0.0900782
0.0881194
0.0859836
0.0836795
0.0812207
0.0786242
0.0759083
0.0730939
0.0702033
0.0672604
0.064289
0.0613127
0.0583544
0.0554353
0.0525754
0.0497927
0.047103
0.0445202
0.0420563
0.0397211
0.037523
0.0354683
0.0335625
0.0318089
0.0302103
0.0287692
0.0274883
0.0263675
0.0254068
0.0246064
0.0239665
0.0234867
0.0231669
0.023007
0.099958
0.0999833
0.100033
0.100106
0.100199
0.100309
0.100432
0.100563
0.100696
0.100824
0.100939
0.101032
0.101092
0.101107
0.101066
0.100956
0.100761
0.100467
0.100059
0.0995193
0.0988342
0.09799
0.0969732
0.0957725
0.094379
0.0927873
0.0909951
0.0890041
0.0868198
0.0844516
0.0819143
0.0792271
0.0764101
0.0734867
0.0704821
0.0674228
0.0643351
0.0612451
0.0581777
0.0551559
0.052201
0.0493315
0.0465643
0.043913
0.0413897
0.0390037
0.0367627
0.0346727
0.0327378
0.0309606
0.0293435
0.0278888
0.026598
0.0254697
0.0245037
0.0236998
0.0230575
0.0225761
0.0222555
0.0220952
0.0998536
0.0998845
0.0999453
0.100035
0.10015
0.100289
0.100446
0.100617
0.100797
0.100977
0.10115
0.101306
0.101435
0.101524
0.10156
0.10153
0.101417
0.101205
0.100877
0.100413
0.099798
0.0990148
0.0980475
0.0968824
0.0955086
0.0939184
0.0921082
0.0900791
0.0878365
0.0853902
0.0827569
0.0799583
0.0770171
0.0739599
0.0708153
0.0676134
0.0643837
0.0611555
0.057956
0.0548106
0.0517419
0.0487695
0.0459105
0.043179
0.0405865
0.038142
0.0358521
0.0337221
0.0317548
0.0299515
0.0283144
0.0268461
0.025545
0.0244092
0.0234382
0.0226311
0.0219869
0.0215044
0.0211832
0.0210227
0.0997197
0.0997569
0.0998304
0.099939
0.10008
0.100251
0.100448
0.100665
0.100898
0.101138
0.101379
0.101609
0.101819
0.101995
0.102123
0.102188
0.102174
0.102062
0.101831
0.10146
0.100931
0.100224
0.0993194
0.0982006
0.0968535
0.0952679
0.0934385
0.0913653
0.0890533
0.0865134
0.0837642
0.0808304
0.0777384
0.0745188
0.0712047
0.0678303
0.0644299
0.0610361
0.0576795
0.0543877
0.0511852
0.0480929
0.045128
0.0423046
0.0396337
0.0371235
0.0347797
0.0326059
0.0306033
0.0287729
0.0271165
0.0256346
0.0243234
0.0231811
0.022206
0.0213966
0.0207513
0.0202684
0.0199472
0.0197867
0.0995504
0.0995946
0.0996824
0.0998124
0.0999824
0.10019
0.10043
0.1007
0.100993
0.101302
0.10162
0.101936
0.102239
0.102516
0.102751
0.102929
0.103032
0.103037
0.102924
0.102667
0.102243
0.10163
0.100805
0.0997456
0.0984347
0.0968588
0.0950099
0.0928864
0.0904933
0.0878421
0.0849541
0.081858
0.0785845
0.0751696
0.071652
0.0680716
0.0644679
0.0608781
0.0573368
0.0538744
0.0505171
0.0472873
0.0442024
0.041276
0.0385184
0.0359366
0.0335349
0.0313147
0.0292757
0.0274181
0.0257442
0.0242496
0.0229299
0.0217826
0.0208052
0.0199952
0.0193501
0.018868
0.0185475
0.0183874
0.0993379
0.0993899
0.0994932
0.0996467
0.0998485
0.100096
0.100386
0.100713
0.101074
0.10146
0.101864
0.102276
0.102686
0.103078
0.103439
0.103748
0.103987
0.104133
0.104159
0.104039
0.103744
0.103248
0.102522
0.101539
0.100277
0.0987181
0.0968509
0.0946716
0.0921844
0.0894022
0.0863493
0.0830593
0.0795687
0.0759202
0.0721599
0.0683347
0.0644908
0.0606711
0.0569147
0.0532554
0.0497217
0.0463364
0.0431176
0.0400781
0.0372266
0.0345686
0.0321061
0.0298386
0.0277643
0.0258822
0.0241926
0.0226875
0.0213618
0.0202124
0.0192353
0.0184269
0.017784
0.017304
0.0169852
0.016826
0.0990735
0.0991339
0.099254
0.0994329
0.0996691
0.0999601
0.100303
0.100694
0.101129
0.1016
0.1021
0.102621
0.10315
0.103674
0.104176
0.104637
0.105036
0.105346
0.105539
0.105583
0.105446
0.105093
0.104491
0.103607
0.102411
0.10088
0.0989973
0.096757
0.0941619
0.0912261
0.0879777
0.0844566
0.0807069
0.0767797
0.0727304
0.0686154
0.0644889
0.0604009
0.0563959
0.0525114
0.0487783
0.0452199
0.041854
0.0386923
0.0357414
0.0330043
0.0304798
0.0281661
0.0260597
0.0241577
0.0224557
0.0209438
0.0196164
0.0184688
0.0174954
0.0166917
0.0160535
0.0155776
0.0152618
0.0151042
0.0987485
0.0988177
0.0989557
0.0991617
0.0994344
0.0997721
0.100172
0.100632
0.101147
0.101711
0.102317
0.102957
0.10362
0.104292
0.104954
0.105589
0.106172
0.106674
0.107065
0.107307
0.10736
0.107184
0.106738
0.10598
0.104873
0.103385
0.101493
0.0991874
0.0964693
0.0933535
0.0898734
0.0860768
0.0820172
0.0777573
0.0733644
0.0689064
0.064448
0.060048
0.0557571
0.0516171
0.0476606
0.0439119
0.0403869
0.0370956
0.034042
0.0312252
0.0286408
0.0262848
0.0241526
0.0222358
0.0205265
0.0190136
0.0176904
0.0165496
0.0155846
0.0147894
0.0141591
0.0136898
0.0133786
0.0132234
0.0983541
0.0984326
0.0985892
0.0988235
0.0991346
0.0995214
0.0999823
0.100515
0.101115
0.101779
0.102501
0.103272
0.104082
0.104918
0.105762
0.106594
0.107388
0.108114
0.108738
0.109215
0.109499
0.109541
0.109291
0.108696
0.107707
0.106283
0.104392
0.102018
0.0991601
0.0958338
0.0920786
0.0879523
0.0835212
0.0788627
0.07406
0.0691958
0.0643481
0.0595861
0.0549679
0.0505398
0.046336
0.0423801
0.0386863
0.0352608
0.0321035
0.0292094
0.026571
0.0241814
0.0220309
0.0201063
0.0183976
0.0168919
0.0155801
0.0144528
0.0135018
0.0127201
0.0121016
0.0116418
0.0113374
0.0111855
0.0978812
0.0979693
0.0981449
0.0984083
0.0987591
0.0991968
0.0997207
0.100329
0.101021
0.101791
0.102636
0.103548
0.104519
0.105536
0.106582
0.107637
0.108673
0.109658
0.110554
0.111312
0.111876
0.112187
0.112184
0.111798
0.110966
0.109635
0.10776
0.105318
0.102301
0.0987281
0.0946448
0.0901223
0.0852437
0.0801059
0.0748127
0.0694662
0.0641614
0.0589801
0.0539889
0.0492384
0.0447635
0.040586
0.0367163
0.0331555
0.0298971
0.0269323
0.0242504
0.0218395
0.0196811
0.0177594
0.0160624
0.0145739
0.0132827
0.012177
0.0112471
0.0104847
0.00988275
0.00943608
0.00914061
0.0089933
0.0973203
0.0974178
0.0976127
0.0979055
0.0982964
0.098786
0.0993744
0.100062
0.100847
0.101729
0.102704
0.103767
0.104911
0.106126
0.107395
0.108699
0.110009
0.111293
0.112507
0.113599
0.114501
0.115144
0.11545
0.115333
0.114713
0.113514
0.111679
0.109171
0.105976
0.102113
0.0976366
0.0926352
0.0872139
0.0814962
0.075613
0.0696923
0.06385
0.0581839
0.0527697
0.0476615
0.0428934
0.0384832
0.0344353
0.0307431
0.0273925
0.0243697
0.0216604
0.0192417
0.0170895
0.0151859
0.0135146
0.0120561
0.0107965
0.00972213
0.00882165
0.00808539
0.00750552
0.00707599
0.00679227
0.00665088
0.0966614
0.0967683
0.0969822
0.0973039
0.0977346
0.0982758
0.098929
0.0996957
0.100577
0.101573
0.102684
0.103906
0.105234
0.106662
0.108175
0.109754
0.111374
0.112999
0.114584
0.11607
0.117381
0.118433
0.119128
0.119359
0.119019
0.11801
0.116249
0.113684
0.11029
0.106085
0.101135
0.09555
0.0894659
0.0830416
0.0764445
0.0698369
0.0633619
0.0571362
0.0512452
0.0457445
0.0406649
0.0360164
0.0317937
0.0279809
0.0245555
0.0214965
0.0187795
0.0163713
0.0142445
0.0123781
0.0107492
0.00933574
0.00812109
0.00708949
0.00622812
0.00552596
0.00497439
0.00456665
0.0042977
0.00416381
0.095895
0.0960109
0.0962429
0.0965924
0.0970616
0.0976529
0.0983695
0.0992146
0.100192
0.101303
0.102552
0.103938
0.10546
0.107113
0.108889
0.110771
0.112734
0.114746
0.116759
0.118711
0.120516
0.122072
0.123258
0.12394
0.123975
0.123231
0.121595
0.11899
0.115376
0.110767
0.105241
0.0989395
0.0920382
0.084745
0.0772781
0.0698445
0.062624
0.0557547
0.0493309
0.0434064
0.0380034
0.0331195
0.0287342
0.0248208
0.0213481
0.0182827
0.0155843
0.0132124
0.0111361
0.00932939
0.00776309
0.00641221
0.00525788
0.00428219
0.00347087
0.00281175
0.00229544
0.00191466
0.00166385
0.00153914
0.0950121
0.0951363
0.0953849
0.0957603
0.0962653
0.0969039
0.0976806
0.098601
0.0996709
0.100896
0.102282
0.103834
0.105555
0.107444
0.109498
0.111706
0.114049
0.116495
0.118998
0.121496
0.123893
0.12607
0.127879
0.129145
0.129679
0.129306
0.12787
0.125258
0.121405
0.116317
0.110087
0.102897
0.0949778
0.0866067
0.0780711
0.0696395
0.0615365
0.0539297
0.0469182
0.0405458
0.0348185
0.0297149
0.0251942
0.0212146
0.0177341
0.0146977
0.0120515
0.00974954
0.00775538
0.00603514
0.00455474
0.00328708
0.00221059
0.00130551
0.000556277
-4.99821e-05
-0.000523429
-0.000871744
-0.00110071
-0.00121447
0.0940043
0.0941357
0.094399
0.0947972
0.0953342
0.0960153
0.096847
0.097837
0.0989939
0.100327
0.101846
0.103561
0.10548
0.10761
0.109954
0.112508
0.115261
0.118189
0.121248
0.124379
0.127485
0.130428
0.133029
0.135057
0.136262
0.136405
0.135275
0.132708
0.128602
0.122943
0.115842
0.107533
0.0983292
0.0886032
0.0787405
0.0690934
0.0599538
0.0515126
0.0438662
0.0370349
0.0309989
0.0257106
0.0211031
0.0171121
0.0136736
0.0107117
0.00816184
0.00597118
0.00409619
0.00249358
0.0011262
-3.51909e-05
-0.00101445
-0.00183289
-0.00250685
-0.00304987
-0.00347233
-0.00378232
-0.00398563
-0.00408654
0.092864
0.0930013
0.0932766
0.0936936
0.0942573
0.0949744
0.0958534
0.0969043
0.098139
0.0995705
0.101214
0.103083
0.105195
0.107563
0.110199
0.113111
0.116301
0.119752
0.123433
0.127291
0.131235
0.135115
0.138722
0.141751
0.143846
0.144704
0.144036
0.141605
0.137247
0.130914
0.122732
0.113005
0.102164
0.0907194
0.0791962
0.0680639
0.0576822
0.0483083
0.0399945
0.0327175
0.0264156
0.0210044
0.0163836
0.0124561
0.00912493
0.00629776
0.00390043
0.0018714
0.000156973
-0.00129263
-0.00251662
-0.00354635
-0.00440751
-0.0051222
-0.00570715
-0.00617589
-0.00653913
-0.00680469
-0.00697848
-0.00706459
0.091585
0.0917265
0.0920105
0.0924413
0.0930248
0.0937694
0.0946854
0.0957855
0.0970846
0.0986001
0.100352
0.102361
0.10465
0.107245
0.110167
0.113438
0.117077
0.121084
0.125446
0.130126
0.13505
0.140073
0.144959
0.149336
0.152649
0.154491
0.154494
0.152337
0.147747
0.140606
0.131048
0.11948
0.106503
0.0928329
0.0791925
0.0662129
0.0544194
0.0440457
0.0350714
0.0274085
0.0209306
0.0154959
0.0109636
0.00719163
0.00405228
0.0014366
-0.000740855
-0.00255086
-0.00405787
-0.00531499
-0.00636266
-0.00723373
-0.00795489
-0.00854817
-0.00902997
-0.0094135
-0.00970906
-0.0099243
-0.0100647
-0.0101341
0.0901627
0.0903063
0.0905949
0.0910332
0.0916283
0.0923898
0.09333
0.0944641
0.0958102
0.0973898
0.099228
0.101353
0.103797
0.106595
0.109783
0.113398
0.117482
0.122058
0.127144
0.132729
0.138776
0.145175
0.151677
0.157838
0.162785
0.165932
0.166916
0.165268
0.160533
0.152457
0.141169
0.127216
0.111458
0.0949114
0.078594
0.0633264
0.0498052
0.0383915
0.0288068
0.0208857
0.0143835
0.00907629
0.00476804
0.00127043
-0.00157067
-0.00388114
-0.00575975
-0.00728792
-0.00853603
-0.009558
-0.0103947
-0.0110795
-0.0116386
-0.0120928
-0.0124575
-0.0127452
-0.0129651
-0.0131242
-0.0132276
-0.0132786
0.0885942
0.0887376
0.0890261
0.0894647
0.0900616
0.0908275
0.0917765
0.0929259
0.0942972
0.0959156
0.0978115
0.100021
0.102584
0.105547
0.108963
0.112888
0.117386
0.122519
0.12834
0.134884
0.142169
0.1502
0.158753
0.167275
0.16984
0.174773
0.177534
0.177507
0.17393
0.166253
0.154386
0.138898
0.120835
0.101548
0.08239
0.0644343
0.0433102
0.0308208
0.0208507
0.0129072
0.00660431
0.00163431
-0.00226975
-0.00534005
-0.00775319
-0.00965032
-0.011143
-0.012321
-0.0132553
-0.0139979
-0.014589
-0.0150602
-0.0154358
-0.0157342
-0.0159689
-0.0161508
-0.0162877
-0.0163856
-0.0164486
-0.0164795
0.0868792
0.0870199
0.0873028
0.0877338
0.0883213
0.0890773
0.090017
0.0911599
0.09253
0.0941564
0.096074
0.0983253
0.10096
0.104036
0.107622
0.111795
0.116645
0.122277
0.128798
0.136301
0.144869
0.154699
0.166023
0.1712
0.180583
0.188234
0.193408
0.195199
0.192506
0.18424
0.170044
0.150689
0.127836
0.103585
0.079992
0.0588653
0.0412186
0.020641
0.0108052
0.00322855
-0.00255892
-0.00691827
-0.0101895
-0.0126453
-0.0144801
-0.0158447
-0.0168604
-0.0176172
-0.0181816
-0.0186017
-0.0189141
-0.0191464
-0.0193188
-0.0194463
-0.0195397
-0.0196073
-0.0196551
-0.0196874
-0.0197073
-0.0197167
0.08502
0.085155
0.0854268
0.0858412
0.0864071
0.0871373
0.0880478
0.0891594
0.0904981
0.0920961
0.0939922
0.0962343
0.0988801
0.101999
0.105674
0.110005
0.115108
0.121127
0.128235
0.136612
0.146391
0.157815
0.172242
0.179259
0.190863
0.200416
0.208154
0.21294
0.212794
0.205568
0.190094
0.167161
0.13915
0.109181
0.0800948
0.0495633
0.0301584
0.0075424
-0.00156161
-0.00835413
-0.0132222
-0.016624
-0.0189896
-0.0206157
-0.0217057
-0.0224147
-0.0228612
-0.0231265
-0.0232681
-0.0233264
-0.0233309
-0.0233024
-0.0232553
-0.0231997
-0.0231427
-0.0230896
-0.0230434
-0.023007
-0.0229817
-0.0229687
0.0830217
0.0831481
0.0834025
0.0837911
0.0843226
0.0850099
0.0858696
0.086923
0.0881971
0.0897259
0.0915507
0.0937236
0.0963085
0.099383
0.103044
0.10741
0.112623
0.11886
0.126349
0.135385
0.146179
0.158769
0.175814
0.185758
0.201343
0.214438
0.226128
0.236004
0.240228
0.234404
0.215898
0.185791
0.148424
0.109254
0.0726968
0.0356648
0.0148665
-0.00896605
-0.0164706
-0.0219918
-0.0254157
-0.0274506
-0.0286061
-0.029172
-0.0293477
-0.0292804
-0.0290703
-0.0287806
-0.0284542
-0.0281186
-0.0277922
-0.0274865
-0.0272082
-0.0269614
-0.0267483
-0.0265702
-0.0264275
-0.0263203
-0.0262487
-0.0262127
0.0808924
0.0810072
0.0812382
0.0815914
0.0820754
0.0827024
0.0834888
0.0844556
0.0856298
0.0870454
0.0887448
0.0907816
0.0932232
0.0961525
0.0996745
0.103921
0.109058
0.115284
0.122863
0.1322
0.143676
0.157079
0.176302
0.189172
0.208575
0.227197
0.245202
0.263647
0.276607
0.27499
0.252445
0.210719
0.158577
0.106018
0.0597475
0.0155222
-0.0061653
-0.0295834
-0.0344046
-0.0377863
-0.0390668
-0.0392736
-0.0388957
-0.0381715
-0.0372766
-0.0363263
-0.0353864
-0.0344927
-0.0336657
-0.032915
-0.0322438
-0.0316521
-0.0311371
-0.0306958
-0.0303246
-0.0300205
-0.0297806
-0.0296026
-0.0294846
-0.0294256
0.0786432
0.0787434
0.0789452
0.0792538
0.0796772
0.0802267
0.0809175
0.0817693
0.0828075
0.0840648
0.0855821
0.087412
0.0896211
0.0922933
0.0955358
0.099486
0.104321
0.110259
0.117574
0.126736
0.138348
0.152011
0.172625
0.187945
0.210604
0.235785
0.261788
0.295086
0.325956
0.33547
0.307132
0.244405
0.167322
0.0951215
0.0372897
-0.0142653
-0.0340854
-0.0551013
-0.055596
-0.0556185
-0.0539516
-0.0518489
-0.049621
-0.0474031
-0.0453111
-0.0433995
-0.0416827
-0.040158
-0.0388164
-0.0376439
-0.036626
-0.0357488
-0.0349989
-0.0343655
-0.0338388
-0.0334112
-0.033076
-0.0328286
-0.0326653
-0.0325839
0.0762882
0.0763712
0.0765382
0.0767937
0.0771444
0.0776002
0.0781743
0.0788838
0.0797514
0.0808062
0.0820853
0.0836367
0.0855223
0.0878215
0.0906361
0.0940984
0.0983853
0.103718
0.110358
0.118778
0.129721
0.142629
0.163113
0.179741
0.202765
0.233707
0.268438
0.325465
0.393523
0.431885
0.393896
0.28782
0.1663
0.067342
-0.00158254
-0.0565975
-0.0703431
-0.0854412
-0.0795487
-0.0749397
-0.069593
-0.064762
-0.0604299
-0.0565765
-0.0532175
-0.0503137
-0.0478108
-0.0456584
-0.0438112
-0.0422284
-0.0408758
-0.0397243
-0.0387498
-0.0379331
-0.0372583
-0.0367129
-0.0362872
-0.0359738
-0.0357674
-0.0356647
0.0738442
0.0739077
0.0740351
0.07423
0.0744975
0.0748454
0.0752839
0.0758268
0.0764921
0.0773037
0.0782923
0.0794979
0.0809733
0.0827869
0.0850276
0.0878107
0.0912957
0.0956891
0.101209
0.10826
0.117567
0.128357
0.146502
0.16224
0.180469
0.211961
0.248232
0.335002
0.479945
0.599989
0.541487
0.331742
0.132074
0.00466028
-0.0662419
-0.114511
-0.115289
-0.119197
-0.104913
-0.0946879
-0.0851861
-0.0773876
-0.0708381
-0.0653238
-0.060717
-0.0568563
-0.053608
-0.0508678
-0.0485516
-0.0465907
-0.0449304
-0.0435274
-0.042347
-0.0413622
-0.0405513
-0.0398977
-0.0393886
-0.0390145
-0.0387683
-0.038646
0.0713305
0.0713727
0.0714568
0.0715851
0.071761
0.0719894
0.0722771
0.0726332
0.07307
0.0736041
0.0742573
0.0750587
0.0760471
0.0772742
0.0788086
0.0807371
0.0831842
0.086319
0.0902921
0.0953823
0.102128
0.109522
0.123106
0.134809
0.140641
0.160547
0.17054
0.263156
0.542335
0.927177
0.804315
0.3081
0.00148812
-0.121332
-0.164669
-0.187524
-0.166506
-0.153373
-0.129473
-0.113296
-0.0995996
-0.0889022
-0.0802566
-0.0732253
-0.0675063
-0.0628046
-0.0589086
-0.0556619
-0.0529427
-0.0506566
-0.0487312
-0.0471105
-0.045751
-0.0446193
-0.0436889
-0.0429399
-0.042357
-0.0419288
-0.0416473
-0.0415074
0.0687684
0.0687879
0.0688262
0.068884
0.0689625
0.0690635
0.0691896
0.0693446
0.0695338
0.0697651
0.0700492
0.0704013
0.0708426
0.0714029
0.0721237
0.073055
0.0742714
0.0758867
0.077975
0.080673
0.08422
0.0874816
0.0952859
0.100731
0.0884854
0.0791781
0.00923074
-0.0276731
0.21365
1.43432
1.18049
-0.169238
-0.351595
-0.331591
-0.292846
-0.266638
-0.217193
-0.183222
-0.150216
-0.128782
-0.111485
-0.0983875
-0.0880664
-0.0798593
-0.0732914
-0.0679503
-0.0635631
-0.0599309
-0.0569021
-0.0543628
-0.0522281
-0.0504332
-0.0489284
-0.0476758
-0.046646
-0.045817
-0.0451716
-0.0446975
-0.0443858
-0.0442309
0.0661803
0.0661768
0.0661681
0.0661537
0.0661322
0.066102
0.0660613
0.0660078
0.0659392
0.0658535
0.0657488
0.0656244
0.0654808
0.0653222
0.0651579
0.0649966
0.0648556
0.0647816
0.0647814
0.0648939
0.0650544
0.0643053
0.0666721
0.0665129
0.0399778
-0.00196707
-0.179989
-0.5368
-1.41613
-2.20496
-0.92195
-0.574875
-0.416556
-0.331929
-0.256401
-0.202921
-0.163779
-0.139065
-0.119517
-0.105
-0.0937271
-0.0848698
-0.0778327
-0.0721291
-0.0674568
-0.0635923
-0.0603681
-0.0576621
-0.0553838
-0.0534648
-0.0518531
-0.0505092
-0.0494027
-0.0485106
-0.0478154
-0.0473042
-0.0469678
-0.0468006
0.0635896
0.0635632
0.0635081
0.0634221
0.0633014
0.0631411
0.0629343
0.0626729
0.0623464
0.0619423
0.0614455
0.0608382
0.0600989
0.0592032
0.058126
0.0568327
0.0552825
0.0534515
0.0512906
0.0488192
0.0457479
0.0417431
0.0400223
0.0384472
0.0129361
-0.0340375
-0.231056
-0.633782
-1.88173
-10.9936
-2.78937
-1.20669
-0.7027
-0.481176
-0.360549
-0.273033
-0.20763
-0.167535
-0.142546
-0.122749
-0.108174
-0.0968974
-0.0880427
-0.0809918
-0.0752503
-0.0705277
-0.0666015
-0.0633075
-0.0605281
-0.0581764
-0.0561864
-0.0545082
-0.0531039
-0.0519441
-0.0510067
-0.0502746
-0.0497356
-0.0493806
-0.0492039
0.0610194
0.0609712
0.0608717
0.0607173
0.0605019
0.0602171
0.0598515
0.059391
0.0588171
0.0581071
0.0572327
0.0561588
0.0548422
0.053229
0.0512581
0.0488516
0.0459131
0.0423453
0.0380341
0.0330301
0.0268574
0.020137
0.0146972
0.0157923
0.00574434
-0.00764008
-0.0801752
-0.209789
-1.00566
-1.50768
-1.39381
-1.65225
-1.01516
-0.649133
-0.46041
-0.342536
-0.261795
-0.195649
-0.160697
-0.138741
-0.12097
-0.107823
-0.0975519
-0.0893743
-0.0827753
-0.0773233
-0.0727841
-0.0689635
-0.0657219
-0.0629598
-0.0606023
-0.0585926
-0.0568869
-0.0554519
-0.0542616
-0.0532961
-0.05254
-0.0519822
-0.0516142
-0.0514309
0.0584919
0.0584236
0.0582834
0.0580663
0.0577641
0.0573653
0.0568543
0.0562116
0.0554116
0.054422
0.0532021
0.0517012
0.0498552
0.0475823
0.0447853
0.0413423
0.0371017
0.0318871
0.0254747
0.0179232
0.00842643
-0.00147998
-0.0128648
-0.0108081
-0.0112464
0.0106469
0.0944204
0.469309
-0.277603
-1.2259
-1.20611
-0.954568
-0.682505
-0.492852
-0.373435
-0.283595
-0.224777
-0.169274
-0.144776
-0.128581
-0.114849
-0.104416
-0.09602
-0.0890939
-0.0833448
-0.0784619
-0.0743046
-0.0707322
-0.0676476
-0.0649807
-0.0626763
-0.0606915
-0.0589926
-0.0575535
-0.056353
-0.0553749
-0.0546063
-0.0540378
-0.0536621
-0.0534749
0.0560275
0.0559416
0.0557658
0.0554939
0.0551159
0.0546178
0.0539807
0.0531804
0.0521852
0.050955
0.0494387
0.0475717
0.0452726
0.0424344
0.0389262
0.0345813
0.0291894
0.0224928
0.0140969
0.0039922
-0.00926465
-0.0235376
-0.0444008
-0.0487941
-0.0643649
-0.0595492
0.00848632
0.122493
-0.310429
-0.765955
-0.724183
-0.548278
-0.415503
-0.320117
-0.257811
-0.199082
-0.170173
-0.133911
-0.123101
-0.114206
-0.105825
-0.0989055
-0.0929408
-0.0876329
-0.0829955
-0.0788678
-0.0752273
-0.0720022
-0.0691493
-0.0666346
-0.0644272
-0.0625016
-0.0608366
-0.0594146
-0.0582207
-0.057243
-0.0564716
-0.0558994
-0.0555206
-0.0553316
0.0536444
0.053544
0.0533387
0.0530217
0.0525816
0.0520025
0.0512634
0.0503362
0.0491851
0.0477642
0.0460147
0.0438615
0.0412098
0.0379334
0.0338724
0.0288195
0.0225056
0.0146099
0.00452715
-0.00785543
-0.0248976
-0.043968
-0.0755354
-0.0920567
-0.137064
-0.187505
-0.243545
-0.490279
-0.700184
-0.738204
-0.52043
-0.324518
-0.218591
-0.160372
-0.135937
-0.106086
-0.108969
-0.096305
-0.0998483
-0.0984164
-0.0957661
-0.0925264
-0.0891388
-0.085548
-0.082107
-0.0788006
-0.0757298
-0.0728956
-0.0703111
-0.0679793
-0.0658946
-0.0640497
-0.0624364
-0.0610463
-0.0598711
-0.0589035
-0.0581369
-0.0575666
-0.0571883
-0.0569992
0.0513577
0.0512461
0.0510185
0.0506675
0.0501809
0.0495419
0.048728
0.0477093
0.0464476
0.0448939
0.0429851
0.0406398
0.0377553
0.0341931
0.0297763
0.0242721
0.0173639
0.00870074
-0.00252891
-0.0164369
-0.0363928
-0.058927
-0.0984348
-0.125584
-0.189023
-0.278496
-0.385564
-0.700743
-1.00942
-0.863171
-0.476693
-0.20425
-0.0606025
-0.0163163
-0.0221712
-0.0192345
-0.0517316
-0.0634129
-0.0792508
-0.0840979
-0.0865794
-0.0865436
-0.0854641
-0.0834168
-0.081075
-0.0785325
-0.0760009
-0.0735439
-0.0712249
-0.0690789
-0.0671229
-0.0653665
-0.0638131
-0.0624628
-0.0613134
-0.0603621
-0.0596054
-0.0590408
-0.0586655
-0.0584779
0.0491788
0.0490598
0.0488175
0.0484443
0.047928
0.0472516
0.0463923
0.04532
0.0439964
0.0423721
0.0403835
0.037948
0.0349619
0.031285
0.0267422
0.0210947
0.0139981
0.00512182
-0.0065113
-0.0207705
-0.041952
-0.0652099
-0.107399
-0.138998
-0.202571
-0.297539
-0.372034
-0.546788
-0.800491
-0.750768
-0.425638
-0.118765
0.0604645
0.109276
0.0723039
0.0450027
-0.00973232
-0.040985
-0.064903
-0.0737165
-0.0798706
-0.0820312
-0.0826424
-0.0817366
-0.080244
-0.078304
-0.0762099
-0.0740674
-0.0719763
-0.0699944
-0.0681558
-0.0664829
-0.0649885
-0.0636793
-0.0625581
-0.0616258
-0.0608817
-0.060325
-0.0599544
-0.059769
0.0471156
0.0469929
0.0467436
0.0463603
0.0458312
0.0451401
0.0442651
0.0431776
0.041841
0.0402085
0.0382196
0.0357971
0.0328452
0.0292339
0.0248052
0.0193372
0.0124787
0.0039922
-0.00720725
-0.0204858
-0.0408709
-0.0618622
-0.101432
-0.131949
-0.184557
-0.263416
-0.289399
-0.34829
-0.476542
-0.508216
-0.367543
-0.142826
0.0710796
0.168265
0.123825
0.0705799
0.00757844
-0.0332835
-0.0592031
-0.0688852
-0.0766746
-0.0796975
-0.0811628
-0.0808503
-0.0798559
-0.0782885
-0.0764826
-0.0745579
-0.0726324
-0.0707749
-0.0690292
-0.0674253
-0.0659818
-0.0647096
-0.0636151
-0.0627018
-0.0619709
-0.0614229
-0.0610577
-0.0608748
0.0451719
0.0450493
0.0448004
0.0444186
0.043893
0.043209
0.0423467
0.0412802
0.0399767
0.0383943
0.0364806
0.0341701
0.0313815
0.0280051
0.0239073
0.0189145
0.0126944
0.00516883
-0.00480837
-0.0159151
-0.0336622
-0.050107
-0.082731
-0.108823
-0.146653
-0.204336
-0.197369
-0.208569
-0.255313
-0.317169
-0.284441
-0.160932
-0.0130455
0.07917
0.0905548
0.0459373
-0.00354248
-0.0409271
-0.0625862
-0.0699879
-0.0772302
-0.0797512
-0.081197
-0.080899
-0.0800222
-0.078574
-0.0768882
-0.0750696
-0.0732351
-0.0714529
-0.069768
-0.0682127
-0.0668073
-0.0655647
-0.0644927
-0.0635963
-0.0628776
-0.0623382
-0.0619784
-0.0617982
0.0433481
0.0432289
0.0429872
0.0426175
0.0421103
0.0414531
0.0406286
0.0396153
0.0383858
0.0369055
0.0351343
0.033022
0.0305053
0.0275005
0.0239087
0.0196307
0.0143747
0.00826845
0.000127146
-0.00797335
-0.0217307
-0.0323146
-0.0551117
-0.0752242
-0.0975496
-0.13706
-0.131205
-0.12931
-0.141234
-0.214689
-0.255132
-0.265795
-0.203192
-0.116131
-0.028444
-0.0199138
-0.0378998
-0.0599344
-0.0730586
-0.0759947
-0.0809494
-0.0818901
-0.0825941
-0.0818157
-0.0807204
-0.0791609
-0.0774367
-0.0756161
-0.073799
-0.072042
-0.0703844
-0.0688554
-0.0674738
-0.0662516
-0.0651967
-0.0643139
-0.0636058
-0.0630742
-0.0627194
-0.0625417
0.041641
0.041528
0.0412996
0.0409511
0.040475
0.0398611
0.0390955
0.0381619
0.0370402
0.0357051
0.0341299
0.0322791
0.0301118
0.027576
0.0246124
0.0212095
0.0171269
0.0127177
0.00676449
0.00203516
-0.00702048
-0.0113487
-0.0231038
-0.0360768
-0.0427818
-0.0643041
-0.0602085
-0.0610659
-0.0939355
-0.212815
-0.347099
-0.454908
-0.430264
-0.293536
-0.156452
-0.0962073
-0.0811577
-0.0833991
-0.0869521
-0.0847962
-0.0866287
-0.0854253
-0.0849438
-0.0833639
-0.0818148
-0.0799732
-0.0780866
-0.0761756
-0.0743137
-0.0725387
-0.0708785
-0.0693556
-0.0679841
-0.0667735
-0.0657302
-0.0648578
-0.0641584
-0.0636335
-0.0632832
-0.0631078
0.0400444
0.0399401
0.0397296
0.0394096
0.0389746
0.0384167
0.0377263
0.0368933
0.0359047
0.0347453
0.0334
0.0318491
0.0300767
0.0280641
0.0257888
0.0233272
0.0204883
0.0178446
0.0141467
0.0126859
0.00833949
0.00978983
0.00866657
0.00373264
0.0123183
0.0127209
0.0183978
-0.00188557
-0.0735807
-0.251485
-0.47374
-0.618447
-0.554363
-0.377578
-0.236219
-0.154547
-0.118767
-0.104865
-0.100538
-0.0940892
-0.0928712
-0.0895132
-0.0877215
-0.0852192
-0.0831038
-0.0808849
-0.078759
-0.0767002
-0.0747498
-0.0729257
-0.0712406
-0.0697083
-0.0683364
-0.0671305
-0.0660943
-0.0652296
-0.0645374
-0.0640183
-0.0636722
-0.0634991
0.0385498
0.0384558
0.0382669
0.0379808
0.0375937
0.037101
0.0364976
0.0357791
0.0349387
0.0339702
0.0328701
0.0316344
0.0302709
0.0287909
0.0272011
0.0256534
0.0239951
0.0229874
0.021342
0.0226472
0.0223645
0.0283724
0.0359652
0.0391513
0.0613805
0.0829828
0.0864944
0.0562009
-0.0324148
-0.250615
-0.501776
-0.622469
-0.517376
-0.370716
-0.259772
-0.184432
-0.143288
-0.120719
-0.111354
-0.10217
-0.098523
-0.0933949
-0.0904213
-0.0870473
-0.0843644
-0.0817502
-0.0793582
-0.077127
-0.0750672
-0.0731766
-0.0714541
-0.0699034
-0.068525
-0.0673198
-0.0662881
-0.0654297
-0.064744
-0.0642305
-0.0638885
-0.0637175
0.0371467
0.0370643
0.0368991
0.03665
0.0363153
0.0358936
0.0353838
0.0347854
0.0340978
0.0333229
0.0324679
0.0315424
0.0305725
0.0295941
0.0286324
0.0278944
0.0272464
0.0275883
0.0275884
0.0308836
0.0335599
0.0423584
0.0555638
0.0653901
0.0968463
0.134609
0.149747
0.111639
0.0144987
-0.193757
-0.406427
-0.461522
-0.396033
-0.312621
-0.24415
-0.190499
-0.154668
-0.130344
-0.118533
-0.108199
-0.102896
-0.0965512
-0.0926617
-0.0885775
-0.0854025
-0.0824303
-0.0797887
-0.0773906
-0.0752204
-0.0732617
-0.071499
-0.0699282
-0.0685422
-0.0673371
-0.0663098
-0.0654579
-0.064779
-0.0642715
-0.0639338
-0.0637652
0.0358238
0.0357534
0.0356129
0.0354022
0.0351218
0.034773
0.0343573
0.0338778
0.0333396
0.032751
0.0321283
0.03149
0.0308755
0.0303375
0.0299084
0.0298263
0.0299544
0.0312755
0.0324113
0.0368188
0.0411619
0.050798
0.0659277
0.0793055
0.112998
0.157568
0.189021
0.148417
0.0447488
-0.112884
-0.25059
-0.288964
-0.278252
-0.244548
-0.213033
-0.18343
-0.156845
-0.134919
-0.122363
-0.112044
-0.105746
-0.0987238
-0.094211
-0.0896233
-0.0860719
-0.082814
-0.0799669
-0.0774318
-0.0751676
-0.0731512
-0.0713556
-0.0697693
-0.0683794
-0.0671775
-0.0661572
-0.0653137
-0.0646432
-0.0641429
-0.0638105
-0.0636447
0.0345688
0.0345104
0.0343944
0.0342221
0.0339955
0.0337175
0.0333919
0.0330252
0.0326268