/*--------------------------------*- C++ -*----------------------------------*\
  =========                 |
  \\      /  F ield         | OpenFOAM: The Open Source CFD Toolbox
   \\    /   O peration     | Website:  https://openfoam.org
    \\  /    A nd           | Version:  12
     \\/     M anipulation  |
\*---------------------------------------------------------------------------*/
FoamFile
{
    format      ascii;
    class       surfaceScalarField;
    location    "300";
    object      phi;
}
// * * * * * * * * * * * * * * * * * * * * * * * * * * * * * * * * * * * * * //

dimensions      [0 3 -1 0 0 0 0];

internalField   nonuniform List<scalar> 
32440
(
1.34238e-07
0.0399879
2.27135e-06
0.0399879
4.12772e-07
0.0399899
2.56065e-06
0.0399879
7.1719e-07
0.0399898
2.88456e-06
0.0399978
3.065e-06
0.0400098
3.26048e-06
0.0400098
5.47306e-06
0.0400098
7.70476e-06
0.0400098
9.9576e-06
0.0400097
6.23305e-06
0.0400037
6.53212e-06
0.0399997
6.85625e-06
0.0399997
7.2062e-06
0.0399997
7.58226e-06
0.0399996
7.98421e-06
0.0399996
8.41119e-06
0.0399996
8.86163e-06
0.0399995
9.33315e-06
0.0399995
9.82249e-06
0.0399995
1.03256e-05
0.0399995
1.08377e-05
0.0399995
1.13532e-05
0.0399995
1.18658e-05
0.0399995
1.23685e-05
0.0399995
1.2854e-05
0.0399995
1.33141e-05
0.0399995
1.21428e-05
0.0400012
6.87124e-06
0.0400053
5.67595e-06
0.0400012
5.76697e-06
0.0399999
6.00103e-06
0.0399998
6.17411e-06
0.0399998
7.28335e-06
0.0399989
7.32727e-06
0.04
7.30538e-06
0.04
7.21851e-06
0.0400001
7.06838e-06
0.0400002
6.85769e-06
0.0400002
6.58986e-06
0.0400003
6.26887e-06
0.0400003
5.8991e-06
0.0400004
5.48522e-06
0.0400004
5.03187e-06
0.0400005
4.54379e-06
0.0400005
4.02545e-06
0.0400005
3.48183e-06
0.0400005
2.91533e-06
0.0400006
2.33035e-06
0.0400006
1.73003e-06
0.0400006
-8.82708e-07
0.0400026
-7.50407e-06
0.0400066
-2.1339e-06
0.0400066
1.22942e-06
0.0400086
5.87898e-07
0.0400106
1.94352e-06
0.0399986
1.29699e-06
0.0399886
6.49176e-07
0.0399906
0.0399886
6.05362e-08
0.0399878
1.32409e-07
0.0399878
2.24114e-07
0.0399898
3.45615e-07
0.0399877
2.50691e-06
0.0399877
4.71793e-06
0.0399956
6.98865e-06
0.0400075
7.3289e-06
0.0400095
9.74832e-06
0.0400074
1.42563e-05
0.0400053
1.88614e-05
0.0400051
1.15719e-05
0.040011
8.39375e-06
0.0400029
9.33292e-06
0.0399987
1.0394e-05
0.0399986
1.15791e-05
0.0399984
1.28881e-05
0.0399983
1.43183e-05
0.0399981
1.58639e-05
0.039998
1.75159e-05
0.0399979
1.92605e-05
0.0399978
2.10835e-05
0.0399977
2.29649e-05
0.0399976
2.4882e-05
0.0399976
2.68094e-05
0.0399976
2.89192e-05
0.0399974
3.07822e-05
0.0399977
3.21691e-05
0.0399982
3.24483e-05
0.0400009
2.82854e-05
0.0400094
2.8172e-05
0.0400013
2.93672e-05
0.0399987
3.03572e-05
0.0399988
3.11266e-05
0.0399991
3.04644e-05
0.0399996
3.07671e-05
0.0399997
3.08286e-05
0.04
3.06544e-05
0.0400003
3.02515e-05
0.0400006
2.96304e-05
0.0400008
2.88044e-05
0.0400011
2.77887e-05
0.0400013
2.66e-05
0.0400016
2.52576e-05
0.0400018
2.57751e-05
0.0399999
2.41717e-05
0.0400021
2.2464e-05
0.0400022
2.06668e-05
0.0400023
1.8796e-05
0.0400024
1.68651e-05
0.0400025
1.28822e-05
0.0400046
6.8612e-06
0.0400086
2.80997e-06
0.0400107
2.73055e-06
0.0400067
2.63163e-06
0.0400087
2.51905e-06
0.0400108
6.39708e-06
0.0399948
2.26829e-06
0.0399928
2.13532e-06
0.0399908
0.0399908
-1.74976e-07
0.039988
-3.29599e-07
0.0399879
1.55386e-06
0.0399879
1.49442e-06
0.0399878
-4.88719e-07
0.0399897
5.62369e-06
0.0399895
5.85063e-06
0.0400073
8.21136e-06
0.0400071
1.07242e-05
0.0400049
1.34074e-05
0.0400026
1.62779e-05
0.0400023
9.35201e-06
0.0400179
8.64164e-06
0.0400036
1.01592e-05
0.0399972
1.19126e-05
0.0399968
1.39073e-05
0.0399964
1.61437e-05
0.0399961
1.86172e-05
0.0399957
2.53175e-05
0.0399913
2.42292e-05
0.039999
2.73268e-05
0.0399947
3.05822e-05
0.0399944
3.39594e-05
0.0399942
3.74161e-05
0.0399941
4.09046e-05
0.0399941
4.43731e-05
0.0399939
4.77669e-05
0.0399943
5.10272e-05
0.0399949
5.25043e-05
0.0399994
4.96562e-05
0.0400123
5.06949e-05
0.0400003
5.27114e-05
0.0399967
5.45596e-05
0.0399969
5.60116e-05
0.0399976
5.8048e-05
0.0399975
5.8656e-05
0.039999
5.8839e-05
0.0399998
5.86046e-05
0.0400005
5.79591e-05
0.0400012
5.69261e-05
0.0400019
5.55303e-05
0.0400025
5.38002e-05
0.0400031
5.17695e-05
0.0400036
4.94615e-05
0.0400041
4.49159e-05
0.0400045
4.21616e-05
0.0400048
3.92312e-05
0.0400052
3.81472e-05
0.0400034
3.49371e-05
0.0400056
2.96243e-05
0.0400078
2.42295e-05
0.04001
1.07782e-05
0.0400221
1.32643e-05
0.0400082
1.17094e-05
0.0400083
1.01257e-05
0.0400103
1.05209e-05
0.0400104
1.09025e-05
0.0399944
7.27371e-06
0.0399964
3.63874e-06
0.0399944
0.0399944
-4.27768e-07
0.0399884
-8.25938e-07
0.0399883
-1.16738e-06
0.0399882
-1.42358e-06
0.039988
4.34049e-07
0.0399878
4.34169e-07
0.0399895
6.60544e-06
0.0400012
8.97639e-06
0.0400047
1.15753e-05
0.0400023
1.2429e-05
0.0400017
1.3564e-05
0.0400011
1.10052e-05
0.0400205
8.77176e-06
0.0400058
8.88125e-06
0.0399971
1.13479e-05
0.0399944
1.61786e-05
0.0399916
2.13761e-05
0.0399909
3.49347e-05
0.0399821
4.48425e-05
0.0399814
3.70681e-05
0.0400067
3.55854e-05
0.0399962
4.03462e-05
0.0399897
4.52979e-05
0.0399893
5.03748e-05
0.039989
5.55105e-05
0.0399889
6.06249e-05
0.0399888
6.56358e-05
0.0399892
7.02618e-05
0.0399903
7.34104e-05
0.0399963
7.19327e-05
0.0400138
7.41895e-05
0.039998
7.72787e-05
0.0399936
8.02196e-05
0.039994
8.23755e-05
0.0399954
8.27183e-05
0.0399972
8.36337e-05
0.0399981
8.39203e-05
0.0399995
8.35904e-05
0.0400008
8.46636e-05
0.0400001
8.31718e-05
0.0400034
8.11532e-05
0.0400045
7.86556e-05
0.0400056
7.57124e-05
0.0400065
7.23834e-05
0.0400074
6.87166e-05
0.0400081
6.475e-05
0.0400088
6.05291e-05
0.0400094
5.4103e-05
0.0400099
5.14997e-05
0.0400083
4.6755e-05
0.0400126
3.19023e-05
0.0400248
2.69669e-05
0.040027
2.195e-05
0.0400132
1.88813e-05
0.0400113
1.57766e-05
0.0400134
1.86482e-05
0.0400075
1.34999e-05
0.0399995
1.03401e-05
0.0399996
5.17245e-06
0.0399996
0.0399996
-7.05438e-07
0.0399891
-1.37195e-06
0.039989
-1.96282e-06
0.0399888
-2.43982e-06
0.0399885
-2.76521e-06
0.0399881
-9.00012e-07
0.0399876
7.19382e-06
0.0399931
7.55536e-06
0.0400044
8.22214e-06
0.0400016
1.12311e-05
0.0399987
1.46183e-05
0.0399977
1.64181e-05
0.0400187
1.06591e-05
0.0400116
1.1364e-05
0.0399964
1.45534e-05
0.0399912
1.82403e-05
0.0399879
2.84265e-05
0.0399807
4.71095e-05
0.0399634
4.62692e-05
0.0399822
4.1868e-05
0.0400111
4.38703e-05
0.0399941
5.02117e-05
0.0399833
5.68243e-05
0.0399827
6.36233e-05
0.0399822
7.05065e-05
0.0399821
7.73697e-05
0.0399819
8.41004e-05
0.0399825
9.05783e-05
0.0399838
9.51033e-05
0.0399917
9.50665e-05
0.0400138
9.86313e-05
0.0399944
0.000103038
0.0399892
0.000106514
0.0399905
0.000109607
0.0399924
0.000112466
0.0399943
0.000113679
0.0399969
0.000114049
0.0399991
0.000113585
0.0400013
0.000110338
0.0400034
0.000108333
0.0400054
0.000105631
0.0400072
0.000104292
0.0400069
0.000100378
0.0400104
9.59624e-05
0.0400118
9.10939e-05
0.040013
8.58495e-05
0.0400141
8.02886e-05
0.0400149
7.44521e-05
0.0400157
6.64046e-05
0.0400163
5.21823e-05
0.0400268
3.3845e-05
0.0400432
3.93671e-05
0.0400215
3.48093e-05
0.0400178
2.81959e-05
0.0400179
2.55418e-05
0.0400161
2.68605e-05
0.0400062
2.01604e-05
0.0400062
1.3447e-05
0.0400063
6.72622e-06
0.0400063
0.0400063
-1.0167e-06
0.0399901
1.5048e-08
0.039988
-8.58657e-07
0.0399897
-1.58993e-06
0.0399893
-2.13087e-06
0.0399887
-2.43282e-06
0.0399879
1.55262e-06
0.0399891
7.87448e-06
0.039998
8.58167e-06
0.0400009
9.72156e-06
0.0399976
1.33398e-05
0.0399941
3.34785e-05
0.0399986
1.81859e-05
0.0400269
1.34844e-05
0.0400011
1.54023e-05
0.0399893
2.19581e-05
0.0399814
3.51589e-05
0.0399675
4.50018e-05
0.0399536
4.74628e-05
0.0399798
4.65076e-05
0.0400121
5.20793e-05
0.0399886
6.01006e-05
0.0399753
6.8482e-05
0.0399743
7.71134e-05
0.0399736
8.5865e-05
0.0399733
9.46071e-05
0.0399732
0.000103389
0.0399737
0.000111265
0.0399759
0.000117671
0.0399853
0.000119199
0.0400123
0.000124161
0.0399895
0.000129577
0.0399838
0.000134447
0.0399856
0.000137894
0.0399889
0.000139484
0.0399927
0.000140999
0.0399954
0.000143426
0.0399967
0.000142799
0.0400019
0.000141163
0.040005
0.000138577
0.0400079
0.000135122
0.0400107
0.000128856
0.0400132
0.000123891
0.0400154
0.000120288
0.0400154
0.000114154
0.0400192
0.000107552
0.0400207
0.000100564
0.0400219
9.32578e-05
0.040023
8.36943e-05
0.0400259
6.59401e-05
0.0400445
6.00394e-05
0.0400491
5.39869e-05
0.0400276
4.58515e-05
0.0400259
3.96577e-05
0.0400241
4.14294e-05
0.0400143
3.31665e-05
0.0400144
2.48866e-05
0.0400145
1.65966e-05
0.0400146
8.30105e-06
0.0400146
0.0400146
-1.37246e-06
0.0399915
-2.68703e-06
0.0399893
-3.88798e-06
0.0399909
-4.91773e-06
0.0399903
-5.7184e-06
0.0399895
-6.23111e-06
0.0399885
-4.39684e-06
0.0399872
3.84429e-06
0.0399898
6.55177e-06
0.0399982
9.78465e-06
0.0399943
1.16009e-05
0.0399923
1.80545e-05
0.0399921
2.32016e-05
0.0400217
1.3084e-05
0.0400112
1.77274e-05
0.0399846
2.91607e-05
0.0399699
5.53962e-05
0.0399412
4.64447e-05
0.0399625
5.02659e-05
0.039976
5.28278e-05
0.0400095
6.00608e-05
0.0399813
6.98711e-05
0.0399655
8.01493e-05
0.039964
9.07544e-05
0.039963
0.000101542
0.0399625
0.000112527
0.0399622
0.000122926
0.0399633
0.000133142
0.0399657
0.000141198
0.0399773
0.000144437
0.040009
0.000150903
0.039983
0.000157833
0.0399769
0.000163371
0.0399801
0.00016804
0.0399842
0.000171982
0.0399888
0.000173778
0.0399936
0.000172233
0.0399982
0.000171385
0.0400028
0.000169298
0.0400071
0.000168049
0.0400092
0.000163735
0.040015
0.000158458
0.0400184
0.000152329
0.0400215
0.000143461
0.0400243
0.000137942
0.0400247
0.000129897
0.0400287
0.000121399
0.0400304
0.000112539
0.0400319
9.13995e-05
0.040047
6.60822e-05
0.0400699
7.45264e-05
0.0400406
6.68432e-05
0.0400352
5.90891e-05
0.0400337
5.72808e-05
0.0400259
4.74306e-05
0.0400242
3.7558e-05
0.0400243
2.76743e-05
0.0400244
1.77852e-05
0.0400245
9.89591e-06
0.0400225
0.0400245
2.16314e-07
0.0399913
-3.50059e-06
0.039993
-5.08467e-06
0.0399925
-4.4688e-06
0.0399897
-5.58567e-06
0.0399906
-6.36574e-06
0.0399892
-6.73836e-06
0.0399876
-2.63416e-06
0.0399857
4.02002e-06
0.0399915
5.29581e-06
0.0399931
7.26326e-06
0.0399903
1.39883e-05
0.0399854
4.15334e-05
0.0399942
2.39778e-05
0.0400288
1.53404e-05
0.0399933
2.56531e-05
0.0399596
4.09437e-05
0.0399259
4.72236e-05
0.0399563
5.44679e-05
0.0399687
5.86333e-05
0.0400054
6.76273e-05
0.0399724
7.93589e-05
0.0399538
9.16811e-05
0.0399517
0.000104445
0.0399502
0.000117444
0.0399495
0.000130463
0.0399492
0.000143283
0.0399505
0.000155665
0.0399533
0.000165561
0.0399674
0.000170863
0.0400037
0.000179019
0.0399749
0.000187162
0.0399687
0.000194062
0.0399732
0.000199416
0.0399789
0.000204136
0.0399841
0.000206201
0.0399915
0.000206658
0.0399978
0.000205528
0.0400039
0.000202905
0.0400097
0.000196892
0.0400152
0.000193616
0.0400183
0.000187214
0.0400248
0.000179797
0.040029
0.000171527
0.0400325
0.000162535
0.0400337
0.000152926
0.0400383
0.000142812
0.0400405
0.000128319
0.0400463
0.000105518
0.0400698
9.65105e-05
0.0400789
8.92722e-05
0.0400479
7.99249e-05
0.0400446
7.85075e-05
0.0400351
6.90415e-05
0.0400354
5.75432e-05
0.0400357
4.60334e-05
0.0400358
3.4522e-05
0.0400359
2.30132e-05
0.040036
1.15085e-05
0.040034
0.040036
-2.26354e-06
0.0399935
-4.45017e-06
0.0399952
-4.48544e-06
0.0399925
-8.29381e-06
0.0399935
-7.79633e-06
0.0399901
-8.91396e-06
0.0399904
-9.56513e-06
0.0399883
-9.66698e-06
0.0399858
-1.13493e-06
0.039983
2.11568e-06
0.0399898
4.16945e-06
0.0399883
7.10994e-06
0.0399824
1.70147e-05
0.0399843
1.39743e-05
0.0400318
1.80195e-05
0.0399892
3.51964e-05
0.0399424
3.95562e-05
0.0399216
4.71067e-05
0.0399487
5.78266e-05
0.039958
6.36782e-05
0.0399995
7.45618e-05
0.0399615
8.83558e-05
0.03994
0.000102907
0.0399371
0.000118019
0.0399351
0.000133453
0.0399341
0.000148965
0.0399337
0.000164255
0.0399352
0.000178823
0.0399387
0.000191394
0.0399548
0.000198614
0.0399965
0.000208623
0.0399649
0.000218361
0.039959
0.000226739
0.0399648
0.000233018
0.0399726
0.000236159
0.0399809
0.000238503
0.0399892
0.000238894
0.0399974
0.000239402
0.0400034
0.000236139
0.040013
0.000231254
0.0400201
0.000222866
0.0400266
0.000217182
0.0400305
0.000208364
0.0400378
0.000198562
0.0400424
0.00018594
0.0400463
0.000176644
0.0400476
0.000162831
0.0400543
0.000136589
0.0400726
0.000104127
0.0401023
0.000117286
0.0400657
0.000106283
0.0400589
0.000103222
0.0400476
9.00844e-05
0.0400482
7.69161e-05
0.0400486
6.37392e-05
0.0400488
5.05674e-05
0.040049
3.94115e-05
0.0400471
2.62665e-05
0.0400491
1.11307e-05
0.0400491
0.0400472
-2.82362e-06
0.0399964
-3.5602e-06
0.0399959
-8.12922e-06
0.0399971
-8.44317e-06
0.0399938
-1.2416e-05
0.0399941
-1.39564e-05
0.0399919
-1.29718e-05
0.0399873
-1.33673e-05
0.0399862
-1.30442e-05
0.0399827
-1.9045e-06
0.0399787
2.15305e-06
0.0399842
3.23035e-06
0.0399814
9.42243e-06
0.0399781
2.48253e-05
0.0400164
2.75149e-05
0.0399865
5.55215e-05
0.0399144
4.29598e-05
0.0399341
4.98015e-05
0.0399419
5.80591e-05
0.0399497
6.96861e-05
0.0399879
8.2578e-05
0.0399486
9.66017e-05
0.0399259
0.000113585
0.0399201
0.000131282
0.0399174
0.000149436
0.0399159
0.000167705
0.0399154
0.000185964
0.039917
0.000203253
0.0399215
0.000218181
0.0399399
0.000227757
0.0399869
0.00024006
0.0399526
0.000251584
0.0399475
0.000260978
0.0399554
0.000268501
0.0399651
0.000274269
0.0399752
0.000276864
0.0399866
0.000277136
0.0399971
0.000273181
0.0400073
0.000271151
0.040015
0.000265219
0.040026
0.000257597
0.0400343
0.000246467
0.0400417
0.000238043
0.0400462
0.000226547
0.0400538
0.00021416
0.0400587
0.000199061
0.0400627
0.000183387
0.04007
0.000159305
0.0400967
0.00014496
0.0401166
0.000136296
0.0400744
0.000131527
0.0400636
0.000116668
0.0400625
0.000101772
0.0400631
8.68731e-05
0.0400635
7.1992e-05
0.0400637
5.91431e-05
0.0400618
4.23198e-05
0.0400639
2.95326e-05
0.0400619
1.47638e-05
0.0400639
0.0400619
-3.47698e-06
0.0399998
-6.85761e-06
0.0399993
-8.05299e-06
0.0399983
-1.29704e-05
0.0399987
-1.35098e-05
0.0399946
-1.55748e-05
0.039994
-1.70579e-05
0.0399888
-1.78523e-05
0.039987
-1.78451e-05
0.0399827
-1.69204e-05
0.0399778
-4.96508e-06
0.0399723
1.46657e-07
0.0399763
6.52643e-06
0.0399717
4.82695e-05
0.0399747
3.15608e-05
0.0400032
3.23814e-05
0.0399136
3.68474e-05
0.0399297
4.69928e-05
0.0399317
6.2823e-05
0.0399339
8.2311e-05
0.0399684
8.73668e-05
0.0399435
0.000103805
0.0399095
0.000123438
0.0399005
0.000144014
0.0398969
0.000165179
0.0398948
0.000186581
0.039894
0.000207776
0.0398958
0.000228114
0.0399011
0.000246173
0.0399218
0.000258457
0.0399746
0.000272937
0.0399381
0.000286436
0.039934
0.000297825
0.039944
0.000306078
0.0399568
0.000310701
0.0399705
0.000313532
0.0399838
0.000315598
0.0399951
0.000313051
0.0400099
0.000306087
0.040022
0.000300936
0.0400312
0.000291845
0.0400434
0.000281075
0.0400524
0.000268896
0.0400584
0.000255522
0.0400672
0.000241196
0.040073
0.000222122
0.0400818
0.000186486
0.0401057
0.000158495
0.0401247
0.000168128
0.040107
0.000161563
0.0400809
0.000146905
0.0400783
0.000130208
0.0400792
0.000113516
0.0400798
9.88639e-05
0.0400781
8.22557e-05
0.0400803
6.37114e-05
0.0400804
4.92292e-05
0.0400784
3.07879e-05
0.0400803
1.63904e-05
0.0400783
0.0400783
-4.23597e-06
0.0400041
-8.36603e-06
0.0400034
-1.22968e-05
0.0400022
-1.39256e-05
0.0400003
-1.91485e-05
0.0399998
-1.98531e-05
0.0399947
-2.39251e-05
0.0399928
-2.32412e-05
0.0399863
-2.36789e-05
0.0399831
-2.31004e-05
0.0399772
-2.13707e-05
0.0399706
-8.3555e-06
0.0399632
-1.90292e-06
0.0399653
1.21146e-05
0.0399607
2.78555e-05
0.0399875
2.1412e-05
0.0399201
3.08683e-05
0.0399202
4.62993e-05
0.0399163
6.77381e-05
0.0399125
0.000113137
0.039923
0.000104498
0.0399522
0.000111579
0.0399024
0.000132147
0.0398799
0.000155909
0.0398731
0.000180481
0.0398702
0.000205607
0.0398689
0.000230165
0.0398712
0.000254242
0.039877
0.000275457
0.0399006
0.000290808
0.0399593
0.00030801
0.0399209
0.000324015
0.0399179
0.000336747
0.0399313
0.000346657
0.0399469
0.00035379
0.0399634
0.000356775
0.0399808
0.000354519
0.0399973
0.000353231
0.0400112
0.000347128
0.0400281
0.000336523
0.0400418
0.000327738
0.0400521
0.000315086
0.0400651
0.000298879
0.0400746
0.000285419
0.0400807
0.00026697
0.0400914
0.000237748
0.040111
0.000196078
0.0401473
0.00019591
0.0401248
0.000197482
0.0401054
0.000180934
0.0400975
0.000162341
0.0400969
0.000143754
0.0400978
0.000125242
0.0400983
0.000106809
0.0400966
8.84734e-05
0.0400987
7.2242e-05
0.0400966
5.40957e-05
0.0400965
3.60219e-05
0.0400984
1.80011e-05
0.0400963
0.0400963
-5.11251e-06
0.0400092
-1.01099e-05
0.0400084
-1.4896e-05
0.040007
-1.93618e-05
0.0400048
-2.13932e-05
0.0400019
-2.48725e-05
0.0399981
-2.76723e-05
0.0399956
-2.96581e-05
0.0399883
-3.06885e-05
0.0399841
-3.06113e-05
0.0399771
-2.72674e-05
0.0399672
-2.44969e-05
0.0399605
-1.21328e-05
0.0399529
-2.00413e-06
0.0399505
4.0024e-05
0.0399455
2.42363e-05
0.0399359
2.66231e-05
0.0399178
3.93102e-05
0.0399036
5.83732e-05
0.0398934
8.78045e-05
0.0398936
9.56017e-05
0.0399444
0.000113514
0.0398845
0.000139298
0.0398542
0.000166616
0.0398458
0.000195038
0.0398418
0.000223984
0.0398399
0.000252873
0.0398423
0.000280789
0.0398491
0.000306089
0.0398753
0.000325037
0.0399403
0.0003454
0.0399005
0.000363799
0.0398995
0.000378951
0.0399162
0.000389984
0.0399359
0.000395849
0.0399575
0.000400921
0.0399757
0.00040018
0.0399981
0.000393889
0.0400175
0.000388384
0.0400336
0.000378043
0.0400521
0.000363263
0.0400669
0.000350449
0.0400779
0.000333986
0.040091
0.000316188
0.0400985
0.00029138
0.0401163
0.000259867
0.0401425
0.000239838
0.0401674
0.000237492
0.0401272
0.000218928
0.040124
0.000198313
0.0401181
0.000177724
0.0401175
0.000157226
0.0401183
0.000138865
0.0401167
0.000116641
0.0401188
9.85839e-05
0.0401167
7.66613e-05
0.0401185
5.68737e-05
0.0401163
3.91946e-05
0.0401161
1.95819e-05
0.0401159
0.0401159
-6.11732e-06
0.0400153
-1.01087e-05
0.0400124
-1.58829e-05
0.0400128
-2.13222e-05
0.0400102
-2.63072e-05
0.0400068
-3.0711e-05
0.0400025
-3.43966e-05
0.0399993
-3.72171e-05
0.0399911
-3.90157e-05
0.0399859
-3.76224e-05
0.0399757
-3.88536e-05
0.0399684
-3.65213e-05
0.0399581
-3.0426e-05
0.0399468
-1.4373e-05
0.0399345
-2.13945e-06
0.0399332
4.51092e-06
0.0399292
1.56852e-05
0.0399067
3.1548e-05
0.0398877
5.02114e-05
0.0398747
7.17322e-05
0.0398721
9.01011e-05
0.039926
0.000115078
0.0398595
0.000144417
0.0398248
0.00017574
0.0398144
0.000208512
0.039809
0.000242109
0.0398063
0.000275933
0.0398085
0.000308611
0.0398165
0.00033824
0.0398457
0.000361399
0.0399172
0.000385407
0.0398765
0.000406995
0.039878
0.000424241
0.0398989
0.000436781
0.0399234
0.000445331
0.039949
0.000446365
0.0399747
0.000446915
0.0399975
0.000441343
0.040023
0.00043009
0.0400448
0.000419654
0.0400626
0.000404548
0.040082
0.000387221
0.0400952
0.000368146
0.0401101
0.000341732
0.0401249
0.000296354
0.0401616
0.000260401
0.0401785
0.000273889
0.0401539
0.000259113
0.040142
0.000236303
0.0401468
0.000215541
0.0401389
0.000192923
0.0401401
0.00017048
0.0401407
0.000148257
0.0401389
0.000126262
0.0401408
0.00010449
0.0401385
8.49284e-05
0.0401381
6.35345e-05
0.0401377
4.2276e-05
0.0401373
2.11167e-05
0.0401371
0.040137
-7.2602e-06
0.0400226
-1.43883e-05
0.0400196
-2.12922e-05
0.0400197
-2.78535e-05
0.0400168
-3.39474e-05
0.0400129
-3.94405e-05
0.040008
-4.21869e-05
0.0400021
-4.60297e-05
0.039995
-4.67933e-05
0.0399867
-5.02966e-05
0.0399792
-4.83268e-05
0.0399665
-4.66616e-05
0.0399565
-4.30757e-05
0.0399432
-3.73117e-05
0.0399287
-2.1129e-05
0.039917
-1.02309e-05
0.0399183
3.56309e-06
0.0398929
2.04779e-05
0.0398708
4.06851e-05
0.0398545
6.42953e-05
0.0398484
8.73679e-05
0.0399029
0.000113666
0.0398332
0.00014693
0.0397916
0.000182752
0.0397786
0.000220524
0.0397712
0.000259455
0.0397674
0.000298665
0.0397693
0.000337076
0.039778
0.0003721
0.0398107
0.000400168
0.0398891
0.000428476
0.0398482
0.000453407
0.039853
0.000473197
0.0398791
0.000487385
0.0399092
0.000496796
0.0399396
0.000499595
0.0399719
0.000495123
0.040002
0.000489876
0.0400283
0.00047844
0.0400563
0.000463473
0.0400775
0.000445531
0.0401
0.000425304
0.0401155
0.000401259
0.0401342
0.000359918
0.0401662
0.000307831
0.0402137
0.000313054
0.0401732
0.000303832
0.0401631
0.000278599
0.0401672
0.000257459
0.0401679
0.000230474
0.0401659
0.00020777
0.0401628
0.000183383
0.0401651
0.000159314
0.040163
0.000137573
0.0401625
0.000112119
0.0401639
8.89449e-05
0.0401613
6.59977e-05
0.0401606
4.52363e-05
0.0401581
2.25875e-05
0.0401597
0.0401596
-6.54578e-06
0.0400291
-1.69579e-05
0.04003
-2.51434e-05
0.0400279
-3.09832e-05
0.0400226
-3.83549e-05
0.0400203
-4.51155e-05
0.0400148
-5.11209e-05
0.0400081
-5.61948e-05
0.04
-6.01533e-05
0.0399906
-6.07907e-05
0.0399798
-6.38741e-05
0.0399696
-6.31526e-05
0.0399557
-5.8356e-05
0.0399384
-5.31797e-05
0.0399235
-4.33232e-05
0.0399072
-2.64479e-05
0.0399014
-1.42621e-05
0.0398807
5.50611e-06
0.0398511
2.71337e-05
0.0398329
5.48052e-05
0.0398208
9.66024e-05
0.0398611
0.00011253
0.0398173
0.000146139
0.039758
0.000187035
0.0397377
0.000230538
0.0397277
0.000275721
0.0397222
0.000321445
0.0397236
0.00036629
0.0397332
0.00040786
0.0397691
0.000441863
0.0398551
0.000475275
0.0398148
0.000504288
0.039824
0.000527259
0.0398562
0.000543174
0.0398932
0.000550951
0.0399318
0.000555222
0.0399676
0.000551292
0.0400059
0.000541838
0.0400377
0.000527673
0.0400704
0.000509556
0.0400956
0.000488301
0.0401212
0.000462631
0.0401411
0.000433204
0.0401636
0.000390601
0.0402088
0.000373348
0.040231
0.000353449
0.0401931
0.000327546
0.040189
0.000297816
0.0401969
0.000274156
0.0401916
0.000248922
0.0401911
0.000222118
0.0401896
0.000195776
0.0401915
0.000169887
0.0401888
0.000144423
0.040188
0.000121378
0.040187
9.66628e-05
0.040186
7.22351e-05
0.0401851
4.60202e-05
0.0401843
2.39746e-05
0.0401818
0.0401836
-9.98596e-06
0.0400391
-1.98296e-05
0.0400398
-2.74519e-05
0.0400355
-3.87432e-05
0.0400339
-4.5568e-05
0.0400271
-5.37932e-05
0.040023
-6.12612e-05
0.0400155
-6.7795e-05
0.0400066
-7.31964e-05
0.039996
-7.72369e-05
0.0399839
-7.76762e-05
0.03997
-7.82147e-05
0.0399563
-7.65384e-05
0.0399367
-7.23113e-05
0.0399193
-6.51347e-05
0.0399
-5.46068e-05
0.0398909
-3.23912e-05
0.0398585
-1.60255e-05
0.0398347
1.07961e-05
0.0398061
4.63949e-05
0.0397852
0.000120844
0.0397867
0.000120683
0.0398175
0.000143168
0.0397355
0.000187812
0.0396931
0.000237926
0.0396776
0.000290433
0.0396697
0.000343935
0.0396701
0.000396843
0.0396803
0.000445913
0.03972
0.00048699
0.039814
0.000526539
0.0397752
0.000560569
0.03979
0.000586763
0.03983
0.000604541
0.0398755
0.000614693
0.0399216
0.000614009
0.0399683
0.000610004
0.0400099
0.000595659
0.0400521
0.000579968
0.0400861
0.000555967
0.0401196
0.000532747
0.0401444
0.000499083
0.0401748
0.000437824
0.0402249
0.000397722
0.0402489
0.000402714
0.040226
0.000383604
0.0402123
0.000352688
0.0402199
0.000322209
0.0402274
0.000292083
0.0402217
0.000264592
0.0402186
0.00023372
0.0402205
0.000207476
0.0402177
0.000179822
0.0402165
0.000152724
0.0402151
0.000126127
0.0402136
9.99607e-05
0.0402121
7.6159e-05
0.0402089
5.06162e-05
0.0402099
2.52573e-05
0.0402071
0.0402088
-1.15761e-05
0.0400507
-2.30076e-05
0.0400512
-3.42324e-05
0.0400467
-4.31372e-05
0.0400428
-5.56072e-05
0.0400396
-6.34943e-05
0.0400309
-7.26497e-05
0.0400247
-8.08901e-05
0.0400148
-8.80078e-05
0.0400032
-9.37633e-05
0.0399896
-9.78816e-05
0.0399741
-9.80464e-05
0.0399565
-9.98936e-05
0.0399386
-9.50298e-05
0.0399144
-8.89883e-05
0.039894
-7.92611e-05
0.0398812
-6.53924e-05
0.0398446
-3.88814e-05
0.0398082
-1.51494e-05
0.0397824
1.62254e-05
0.0397538
6.55633e-05
0.0397373
9.33186e-05
0.0397897
0.000130997
0.0396978
0.000184124
0.03964
0.000241904
0.0396198
0.000303013
0.0396086
0.000365796
0.0396073
0.000428086
0.039618
0.000486696
0.0396614
0.000536389
0.0397644
0.000583313
0.0397283
0.000623179
0.0397501
0.000653051
0.0398001
0.000672965
0.0398556
0.000683165
0.0399114
0.000682869
0.0399686
0.000673979
0.0400188
0.000657698
0.0400684
0.000635537
0.0401083
0.000608842
0.0401463
0.000574786
0.0401785
0.000524444
0.0402251
0.000459011
0.0402903
0.000456502
0.0402514
0.000441589
0.0402409
0.000409046
0.0402448
0.000373059
0.0402559
0.000341669
0.0402588
0.000311073
0.0402523
0.000277301
0.0402524
0.000248392
0.0402494
0.000218288
0.0402478
0.000188949
0.0402458
0.000160307
0.0402437
0.000134292
0.0402396
0.000106788
0.0402397
7.76969e-05
0.040238
5.2952e-05
0.0402346
2.44005e-05
0.0402357
0.0402332
-1.33162e-05
0.040064
-2.44842e-05
0.0400624
-3.94743e-05
0.0400617
-5.21725e-05
0.0400555
-6.24655e-05
0.0400499
-7.62304e-05
0.0400447
-8.52985e-05
0.0400338
-9.55111e-05
0.040025
-0.000102638
0.0400103
-0.000110437
0.0399974
-0.000116606
0.0399803
-0.000120817
0.0399607
-0.00012265
0.0399404
-0.000121649
0.0399134
-0.000117277
0.0398896
-0.00010693
0.0398708
-9.40011e-05
0.0398317
-7.78072e-05
0.039792
-4.76847e-05
0.0397522
-1.49145e-05
0.039721
2.70869e-05
0.0396953
8.67216e-05
0.0397301
0.000120206
0.0396643
0.000174741
0.0395854
0.000241433
0.0395531
0.000312795
0.0395373
0.000386774
0.0395333
0.000460863
0.0395439
0.000530752
0.0395915
0.000591148
0.039704
0.000647148
0.0396723
0.000693748
0.0397035
0.000728518
0.0397653
0.000750366
0.0398337
0.000757882
0.0399039
0.000757027
0.0399694
0.000741943
0.0400339
0.000722551
0.0400878
0.000690645
0.0401402
0.000652055
0.0401849
0.000610183
0.0402204
0.000562485
0.0402728
0.000533748
0.040319
0.000506484
0.0402787
0.000471596
0.0402758
0.000429429
0.040287
0.000390291
0.040295
0.000359904
0.0402892
0.000324726
0.0402875
0.000292748
0.0402843
0.000259855
0.0402823
0.000227996
0.0402797
0.000197077
0.0402768
0.000169041
0.0402718
0.000137705
0.0402709
0.000111017
0.0402663
8.28153e-05
0.0402662
5.49912e-05
0.0402624
2.7418e-05
0.0402633
0.0402606
-1.52004e-05
0.0400792
-3.02594e-05
0.0400775
-4.31582e-05
0.0400746
-5.78166e-05
0.0400702
-7.41323e-05
0.0400662
-8.59733e-05
0.0400565
-9.92056e-05
0.040047
-0.000111654
0.0400375
-0.000123103
0.0400217
-0.000133302
0.0400076
-0.00014194
0.0399889
-0.000148649
0.0399674
-0.000150991
0.0399428
-0.000152433
0.0399149
-0.000148391
0.0398856
-0.000140149
0.0398626
-0.000130855
0.0398224
-0.000113752
0.0397749
-8.9889e-05
0.0397284
-5.03451e-05
0.0396815
-1.99775e-07
0.0396452
0.000101014
0.0396289
0.000114904
0.0396504
0.000159917
0.0395404
0.000235011
0.039478
0.00031858
0.0394537
0.000406329
0.0394456
0.000494367
0.0394559
0.0005787
0.0395072
0.00065238
0.0396303
0.000719629
0.0396051
0.000774906
0.0396482
0.000814686
0.0397255
0.000838194
0.0398102
0.00084656
0.0398956
0.000839777
0.0399762
0.000820901
0.0400528
0.000788555
0.0401201
0.000739393
0.0401894
0.000675506
0.0402488
0.000612915
0.040283
0.000570889
0.0403149
0.000573992
0.0403159
0.000539536
0.0403132
0.000496193
0.0403191
0.000452197
0.040331
0.000413549
0.0403337
0.000376344
0.0403264
0.000340732
0.0403231
0.000304597
0.0403205
0.000269847
0.040317
0.000236373
0.0403131
0.000206061
0.0403071
0.000172728
0.0403051
0.000144291
0.0402994
0.000112546
0.0402981
8.54077e-05
0.0402933
5.46712e-05
0.0402932
2.82518e-05
0.0402897
0.0402889
-1.72176e-05
0.0400964
-3.43014e-05
0.0400946
-5.12646e-05
0.0400916
-6.80459e-05
0.040087
-8.25485e-05
0.0400807
-9.868e-05
0.0400727
-0.000114307
0.0400626
-0.000129263
0.0400524
-0.000143363
0.0400358
-0.000156336
0.0400206
-0.000165877
0.0399985
-0.000175592
0.0399771
-0.000183038
0.0399502
-0.000187624
0.0399195
-0.000186695
0.0398846
-0.000175473
0.0398514
-0.000170681
0.0398176
-0.000159599
0.0397638
-0.000136968
0.0397057
-0.000105451
0.03965
-5.3778e-05
0.0395935
1.14278e-05
0.0395637
6.35028e-05
0.0395983
0.000133773
0.0394701
0.0002212
0.0393906
0.000319268
0.0393556
0.00042363
0.0393412
0.000529894
0.0393496
0.000632093
0.039405
0.000723064
0.0395393
0.000804326
0.0395238
0.000869667
0.0395829
0.000915652
0.0396796
0.00094073
0.0397851
0.000946093
0.0398902
0.000931095
0.0399912
0.000901846
0.040082
0.000848273
0.0401737
0.000789603
0.040248
0.000742786
0.0402956
0.000677995
0.0403478
0.000648182
0.0403447
0.00061672
0.0403474
0.00057084
0.040359
0.000518807
0.0403712
0.000468861
0.0403809
0.000430655
0.0403719
0.000390617
0.0403664
0.000350631
0.0403631
0.000312499
0.0403586
0.000278083
0.0403514
0.000243167
0.0403481
0.000209629
0.0403406
0.000177249
0.0403375
0.000145868
0.0403308
0.000117323
0.0403266
8.53986e-05
0.0403252
5.79911e-05
0.0403206
2.88908e-05
0.0403188
0.0403178
-1.93521e-05
0.0401158
-3.85819e-05
0.0401138
-5.77415e-05
0.0401107
-7.47803e-05
0.040104
-9.36497e-05
0.0400996
-0.000112263
0.0400913
-0.000132519
0.0400829
-0.000148262
0.0400682
-0.000165322
0.0400529
-0.000179455
0.0400347
-0.000196361
0.0400154
-0.000207646
0.0399884
-0.000218816
0.0399614
-0.000227295
0.039928
-0.000232304
0.0398896
-0.000228968
0.039848
-0.000225968
0.0398146
-0.000214222
0.0397521
-0.000194198
0.0396857
-0.000164089
0.0396199
-0.000121955
0.0395514
-5.58529e-05
0.0394976
2.22203e-05
0.0395203
9.51468e-05
0.0393972
0.000196625
0.0392891
0.000312154
0.0392401
0.000436465
0.0392169
0.000564933
0.0392211
0.000691506
0.0392784
0.000805063
0.0394257
0.000902274
0.0394266
0.000980745
0.0395044
0.00103359
0.0396267
0.00105934
0.0397594
0.00105845
0.0398911
0.00103634
0.0400133
0.000979709
0.0401386
0.00091179
0.0402416
0.000859118
0.0403007
0.000810896
0.0403439
0.000757962
0.0404007
0.000707582
0.040395
0.00065121
0.0404038
0.000595436
0.0404148
0.000540473
0.0404261
0.000492312
0.0404291
0.000446889
0.0404173
0.000404232
0.0404091
0.000362061
0.0404052
0.00032215
0.0403985
0.000284268
0.0403893
0.000248173
0.0403841
0.000213638
0.0403751
0.000182454
0.0403687
0.000148355
0.0403649
0.000117192
0.0403578
8.87649e-05
0.0403537
5.88646e-05
0.0403505
2.93136e-05
0.0403483
0.0403471
-2.15822e-05
0.0401374
-4.10503e-05
0.0401333
-6.25147e-05
0.0401322
-8.59586e-05
0.0401275
-0.000107338
0.040121
-0.000128607
0.0401125
-0.000147687
0.040102
-0.000168477
0.040089
-0.000188808
0.0400732
-0.000208498
0.0400544
-0.000225233
0.0400321
-0.000244654
0.0400078
-0.000258272
0.039975
-0.000271449
0.0399411
-0.000281428
0.0398996
-0.000285175
0.0398518
-0.000281432
0.0398108
-0.000278561
0.0397492
-0.000262835
0.03967
-0.000236039
0.0395931
-0.000193536
0.0395089
-0.000128
0.039432
-8.66999e-06
0.0394009
4.36868e-05
0.0393449
0.000160299