/*--------------------------------*- C++ -*----------------------------------*\
  =========                 |
  \\      /  F ield         | OpenFOAM: The Open Source CFD Toolbox
   \\    /   O peration     | Website:  https://openfoam.org
    \\  /    A nd           | Version:  12
     \\/     M anipulation  |
\*---------------------------------------------------------------------------*/
FoamFile
{
    format      ascii;
    class       volVectorField;
    location    "300";
    object      U;
}
// * * * * * * * * * * * * * * * * * * * * * * * * * * * * * * * * * * * * * //

dimensions      [0 1 -1 0 0 0 0];

internalField   nonuniform List<vector> 
16227
(
(2 -6.50662e-07 -1.08526e-22)
(2 -1.86531e-06 1.08771e-22)
(2 -2.86221e-06 -1.08772e-22)
(2 -3.50348e-06 -1.08819e-22)
(2 -3.6456e-06 1.08821e-22)
(2 -3.14423e-06 1.08849e-22)
(2 -1.85693e-06 2.24222e-26)
(2 3.59474e-07 -2.17699e-22)
(2 3.6455e-06 3.26531e-22)
(2 8.1389e-06 -2.17673e-22)
(2 1.39712e-05 0)
(2 2.12643e-05 2.17441e-22)
(2 3.01216e-05 0)
(2 4.0637e-05 0)
(2 5.28875e-05 0)
(2 6.69233e-05 0)
(2 8.27632e-05 0)
(2 0.000100392 0)
(2 0.000119754 0)
(2 0.000140751 0)
(2 0.000163235 -2.07599e-22)
(2 0.00018701 2.30978e-24)
(2 0.000211834 2.05287e-22)
(2 0.000237417 0)
(2 0.000263427 -1.96446e-22)
(2 0.000289495 1.96445e-22)
(2 0.000315229 0)
(2 0.0003402 9.34945e-23)
(2 0.000364011 0)
(2 0.000386277 0)
(2 0.000406601 0)
(2 0.000424637 0)
(2 0.000440066 0)
(2 0.000452664 1.53824e-22)
(2 0.000462243 -5.77088e-24)
(2 0.000468696 -1.4805e-22)
(2 0.000471963 0)
(2 0.000472055 1.30415e-22)
(2 0.000469039 -5.8534e-24)
(2 0.000463032 -1.24561e-22)
(2 0.000454192 0)
(2 0.000442711 0)
(2 0.000428803 0)
(2 0.000412698 0)
(2 0.000394629 0)
(2 0.000374831 0)
(2 0.000353529 0)
(2 0.000330957 0)
(2 0.000307298 0)
(2 0.00028272 0)
(2 0.0002574 0)
(2 0.000231477 0)
(2 0.000205107 0)
(2 0.00017836 0)
(2 0.000151312 -2.94508e-23)
(2 0.000124031 2.9452e-23)
(2 9.65959e-05 0)
(2 6.90726e-05 0)
(2 4.14933e-05 0)
(2 1.38466e-05 2.72026e-23)
(2 -5.32214e-06 2.00234e-26)
(2 -1.56561e-05 0)
(2 -2.51513e-05 0)
(2 -3.32644e-05 0)
(2 -3.94314e-05 -1.8403e-22)
(2 -4.30975e-05 0)
(2 -4.37057e-05 0)
(1.99999 -4.06968e-05 -5.52252e-22)
(1.99999 -3.35193e-05 3.68159e-22)
(1.99999 -2.16378e-05 -7.36055e-22)
(1.99999 -4.54788e-06 2.94311e-21)
(1.99998 1.82413e-05 -1.83801e-21)
(1.99998 4.71561e-05 9.18783e-22)
(1.99997 8.25492e-05 0)
(1.99997 0.000124733 0)
(1.99997 0.000173907 0)
(1.99996 0.00023016 0)
(1.99996 0.000293442 0)
(1.99995 0.000363554 0)
(1.99995 0.000440127 0)
(1.99995 0.000522598 0)
(1.99994 0.000610236 0)
(1.99994 0.000702124 0)
(1.99994 0.000797151 0)
(1.99994 0.000894052 0)
(1.99994 0.000991424 -3.26417e-22)
(1.99994 0.00108777 3.264e-22)
(1.99994 0.00118151 -1.58045e-22)
(1.99995 0.00127107 0)
(1.99995 0.00135496 0)
(1.99995 0.00143172 0)
(1.99996 0.00150002 0)
(1.99997 0.0015587 0)
(1.99997 0.0016069 0)
(1.99998 0.00164392 0)
(1.99999 0.00166936 -2.404e-22)
(2 0.00168301 1.00078e-23)
(2 0.0016849 1.00073e-23)
(2.00001 0.00167532 9.94021e-24)
(2.00002 0.00165473 2.10439e-22)
(2.00002 0.00162372 1.91014e-22)
(2.00003 0.00158303 -1.91016e-22)
(2.00003 0.00153347 0)
(2.00004 0.00147591 0)
(2.00004 0.00141123 0)
(2.00005 0.00134028 0)
(2.00005 0.00126392 0)
(2.00005 0.00118296 0)
(2.00006 0.00109812 0)
(2.00006 0.00101008 0)
(2.00006 0.000919427 1.15307e-22)
(2.00006 0.000826664 -2.27595e-22)
(2.00006 0.000732315 -2.12237e-22)
(2.00006 0.000636697 2.12256e-22)
(2.00006 0.000540015 -1.98366e-22)
(2.00006 0.000442586 2.94921e-22)
(2.00006 0.000344669 -9.65954e-23)
(2.00006 0.000246427 4.65619e-23)
(2.00006 0.000148001 -4.65639e-23)
(2.00006 4.93824e-05 -3.42814e-25)
(2.00002 -1.13152e-05 1.83232e-22)
(2.00002 -3.3409e-05 0)
(2.00002 -5.39771e-05 0)
(2.00001 -7.20309e-05 0)
(2.00001 -8.6542e-05 1.84034e-22)
(2 -9.64945e-05 -3.68228e-22)
(2 -0.000100875 -1.23302e-25)
(1.99999 -9.86617e-05 5.52309e-22)
(1.99998 -8.88448e-05 1.84213e-22)
(1.99997 -7.04413e-05 7.36536e-22)
(1.99996 -4.25236e-05 -7.36511e-22)
(1.99995 -4.19671e-06 -1.47151e-21)
(1.99994 4.5353e-05 1.84173e-22)
(1.99992 0.000106761 0)
(1.99991 0.00018061 1.83313e-22)
(1.9999 0.000267288 0)
(1.99988 0.000366963 0)
(1.99987 0.000479567 0)
(1.99986 0.000604732 -7.16816e-22)
(1.99984 0.000741828 7.16703e-22)
(1.99983 0.000889795 -3.52186e-22)
(1.99982 0.00104733 3.52162e-22)
(1.99982 0.00121275 0)
(1.99981 0.00138404 -3.38909e-22)
(1.99981 0.00155887 5.52682e-24)
(1.99981 0.00173468 3.33328e-22)
(1.99981 0.00190873 0)
(1.99982 0.00207812 0)
(1.99983 0.00224001 0)
(1.99984 0.00239164 0)
(1.99986 0.00253032 1.41772e-22)
(1.99988 0.00265364 -2.88571e-22)
(1.99989 0.00275955 0)
(1.99992 0.00284645 0)
(1.99994 0.00291311 2.50413e-22)
(1.99996 0.00295882 -2.50399e-22)
(1.99999 0.00298325 0)
(2.00001 0.00298653 0)
(2.00003 0.0029692 0)
(2.00005 0.00293208 0)
(2.00007 0.00287636 0)
(2.00009 0.00280336 0)
(2.00011 0.00271462 -8.79766e-23)
(2.00012 0.00261172 0)
(2.00013 0.00249623 0)
(2.00015 0.00236973 0)
(2.00016 0.00223379 -6.81521e-23)
(2.00016 0.00208985 1.39306e-22)
(2.00017 0.00193919 0)
(2.00018 0.00178303 6.09712e-23)
(2.00018 0.00162242 0)
(2.00018 0.0014583 1.12242e-22)
(2.00019 0.0012915 2.10366e-22)
(2.00019 0.00112252 4.36663e-23)
(2.00019 0.000951803 -2.02842e-22)
(2.00019 0.000779948 9.56147e-23)
(2.00019 0.000607326 -9.56509e-23)
(2.00019 0.000434156 0)
(2.00019 0.000260707 0)
(2.00019 8.69726e-05 -4.55856e-23)
(2.00005 -1.77702e-05 0)
(2.00005 -5.2546e-05 0)
(2.00004 -8.50908e-05 -1.83852e-22)
(2.00003 -0.000113963 0)
(2.00003 -0.000137652 -1.84072e-22)
(2.00001 -0.000154672 1.84071e-22)
(2 -0.000163532 0)
(1.99998 -0.000162738 -5.5272e-22)
(1.99996 -0.000150795 5.52752e-22)
(1.99994 -0.000126238 0)
(1.99992 -8.7687e-05 -7.37071e-22)
(1.9999 -3.38303e-05 -2.21221e-21)
(1.99987 3.66028e-05 -3.67899e-22)
(1.99984 0.000124526 0)
(1.99981 0.000230856 -1.83334e-22)
(1.99978 0.000356168 0)
(1.99975 0.000500772 0)
(1.99972 0.000664584 1.44774e-21)
(1.9997 0.000847112 -1.44742e-21)
(1.99967 0.00104742 0)
(1.99965 0.00126406 -3.53509e-22)
(1.99963 0.00149504 3.78694e-24)
(1.99961 0.00173787 4.34687e-24)
(1.9996 0.00198955 3.45314e-22)
(1.99959 0.00224665 0)
(1.99959 0.00250535 0)
(1.9996 0.00276156 0)
(1.99962 0.00301095 1.57289e-22)
(1.99964 0.00324924 -1.41302e-24)
(1.99966 0.00347234 1.49098e-22)
(1.9997 0.00367624 -2.4325e-24)
(1.99973 0.00385731 0)
(1.99978 0.00401254 0)
(1.99982 0.00413956 0)
(1.99987 0.00423659 -2.50642e-22)
(1.99992 0.00430261 1.02268e-23)
(1.99997 0.00433718 1.02925e-23)
(2.00002 0.00434066 1.02849e-23)
(2.00006 0.00431385 4.29406e-22)
(2.00011 0.00425805 -2.09591e-22)
(2.00015 0.00417506 0)
(2.00019 0.00406699 -9.21491e-23)
(2.00022 0.00393609 8.79218e-23)
(2.00025 0.00378472 0)
(2.00028 0.00361529 0)
(2.00031 0.00343018 0)
(2.00033 0.00323164 -7.11033e-23)
(2.00034 0.0030218 0)
(2.00036 0.00280255 0)
(2.00037 0.00257564 -1.21018e-22)
(2.00038 0.00234263 -2.25636e-22)
(2.00039 0.0021048 4.41467e-22)
(2.00039 0.00186343 -2.15917e-22)
(2.0004 0.00161896 -2.5087e-22)
(2.0004 0.00137235 1.99691e-22)
(2.0004 0.00112432 0)
(2.0004 0.000875352 0)
(2.0004 0.000625661 4.5027e-23)
(2.0004 0.000375663 0)
(2.00041 0.000125306 0)
(2.00009 -2.48755e-05 0)
(2.00009 -7.36379e-05 0)
(2.00008 -0.000119453 7.19652e-26)
(2.00007 -0.000160424 0)
(2.00005 -0.000194549 0)
(2.00003 -0.000219863 -3.68323e-22)
(2.00001 -0.000234378 -5.52979e-22)
(1.99998 -0.000236112 5.52727e-22)
(1.99994 -0.00022307 0)
(1.99991 -0.000193271 0)
(1.99987 -0.000144838 -7.38246e-22)
(1.99982 -7.60231e-05 4.42431e-21)
(1.99978 1.49723e-05 -3.67927e-22)
(1.99973 0.000129362 3.68829e-22)
(1.99968 0.000268452 0)
(1.99963 0.000433069 0)
(1.99957 0.000623688 7.30621e-22)
(1.99952 0.000840283 2.18566e-21)
(1.99947 0.0010823 -1.09018e-21)
(1.99943 0.00134843 0)
(1.99938 0.00163695 0)
(1.99935 0.00194506 0)
(1.99932 0.0022695 0)
(1.9993 0.00260619 -3.42491e-22)
(1.99929 0.00295053 5.51185e-24)
(1.99929 0.00329728 6.14272e-24)
(1.99931 0.00364088 3.30666e-22)
(1.99933 0.00397542 1.60801e-22)
(1.99937 0.00429506 -1.58305e-24)
(1.99941 0.00459418 -1.54112e-22)
(1.99947 0.00486729 4.39055e-22)
(1.99954 0.00510944 -2.90827e-22)
(1.99961 0.00531655 -2.71526e-22)
(1.99969 0.00548547 2.71493e-22)
(1.99978 0.00561381 2.51001e-22)
(1.99986 0.00570022 -2.50977e-22)
(1.99995 0.00574427 0)
(2.00003 0.00574648 0)
(2.00011 0.00570814 -2.08947e-22)
(2.00019 0.00563111 2.08946e-22)
(2.00026 0.00551793 1.8861e-22)
(2.00033 0.00537156 -9.65262e-23)
(2.00039 0.00519512 0)
(2.00044 0.00499182 0)
(2.00049 0.00476504 0)
(2.00053 0.00451794 0)
(2.00056 0.00425357 0)
(2.00059 0.0039748 0)
(2.00062 0.00368415 -6.20974e-23)
(2.00064 0.00338391 -2.90161e-22)
(2.00065 0.00307615 2.32402e-22)
(2.00066 0.00276261 2.11559e-22)
(2.00067 0.00244467 -3.13724e-22)
(2.00068 0.00212301 1.95297e-22)
(2.00069 0.00179903 -1.95318e-22)
(2.00069 0.00147353 0)
(2.00069 0.00114699 0)
(2.00069 0.000819683 -1.2405e-24)
(2.00069 0.000492101 0)
(2.0007 0.000164132 0)
(2.00015 -3.28493e-05 -1.82931e-22)
(2.00014 -9.73335e-05 0)
(2.00013 -0.000158151 -1.10025e-26)
(2.00011 -0.000212946 1.83797e-22)
(2.00008 -0.000259221 0)
(2.00005 -0.000294519 4.8217e-27)
(2.00002 -0.000316338 -3.68787e-22)
(1.99997 -0.000322185 3.68698e-22)
(1.99992 -0.000309558 0)
(1.99987 -0.000275916 0)
(1.9998 -0.000218815 3.70131e-22)
(1.99974 -0.000136089 1.4806e-21)
(1.99966 -2.53258e-05 -7.38272e-22)
(1.99959 0.000115191 3.70378e-22)
(1.99951 0.000287042 0)
(1.99943 0.000491429 -3.6831e-22)
(1.99934 0.000729039 3.6832e-22)
(1.99926 0.00100006 3.1372e-25)
(1.99919 0.00130382 -1.64233e-21)
(1.99911 0.00163877 -3.6072e-22)
(1.99905 0.00200295 3.63997e-22)
(1.99899 0.00239262 3.572e-24)
(1.99895 0.00280379 3.54301e-22)
(1.99892 0.00323125 0)
(1.9989 0.00366902 0)
(1.9989 0.00411038 0)
(1.99892 0.00454807 0)
(1.99896 0.00497444 -1.60755e-22)
(1.99902 0.00538183 0)
(1.99909 0.00576289 0)
(1.99918 0.00611052 4.4305e-22)
(1.99928 0.00641818 -2.92596e-22)
(1.9994 0.0066806 0)
(1.99952 0.0068938 0)
(1.99966 0.00705473 0)
(1.99979 0.00716177 0)
(1.99992 0.00721451 2.29761e-22)
(2.00005 0.00721372 -1.08549e-23)
(2.00018 0.00716131 -3.2544e-22)
(2.0003 0.00705992 0)
(2.00041 0.00691291 0)
(2.00051 0.00672425 1.7724e-22)
(2.00061 0.00649805 -2.62924e-22)
(2.00069 0.00623861 0)
(2.00076 0.00595026 0)
(2.00082 0.0056371 0)
(2.00087 0.00530305 0)
(2.00091 0.00495174 0)
(2.00095 0.00458633 1.81729e-22)
(2.00098 0.00420977 4.52185e-22)
(2.001 0.00382455 -4.54133e-22)
(2.00102 0.0034329 2.0611e-22)
(2.00103 0.00303601 -1.0408e-22)
(2.00104 0.0026353 0)
(2.00105 0.00223237 4.57425e-23)
(2.00106 0.00182793 0)
(2.00106 0.00142247 0)
(2.00106 0.00101637 -4.37677e-23)
(2.00106 0.000610101 0)
(2.00106 0.000203475 4.12337e-23)
(2.00022 -4.19609e-05 1.67872e-25)
(2.00021 -0.000124436 0)
(2.00019 -0.000202523 0)
(2.00017 -0.000273414 -1.83679e-22)
(2.00013 -0.000334111 0)
(2.00009 -0.000381649 1.8412e-22)
(2.00003 -0.000413012 -1.84462e-22)
(1.99997 -0.000425154 3.69081e-22)
(1.9999 -0.000415053 0)
(1.99982 -0.000379601 -7.40608e-22)
(1.99973 -0.000315684 3.70444e-22)
(1.99963 -0.000220613 2.21002e-24)
(1.99953 -9.14344e-05 1.48831e-21)
(1.99942 7.4317e-05 -7.41188e-22)
(1.9993 0.000278445 2.78522e-25)
(1.99918 0.000522681 -1.83875e-22)
(1.99907 0.000807975 3.69594e-21)
(1.99895 0.0011349 -1.48237e-21)
(1.99883 0.00150285 -2.38662e-21)
(1.99873 0.0019099 3.29961e-21)
(1.99863 0.00235405 3.66988e-22)
(1.99855 0.00283043 -3.57581e-22)
(1.99848 0.00333444 4.06633e-24)
(1.99844 0.00385954 3.53354e-22)
(1.99841 0.00439835 0)
(1.99841 0.00494241 0)
(1.99844 0.00548255 0)
(1.9985 0.0060091 0)
(1.99858 0.00651232 1.5984e-22)
(1.99869 0.0069829 0)
(1.99882 0.00741177 -4.49121e-22)
(1.99897 0.00779061 0)
(1.99914 0.00811283 2.7419e-22)
(1.99932 0.00837337 -2.7413e-22)
(1.99951 0.00856857 2.52146e-22)
(1.9997 0.00869661 -1.12374e-23)
(1.9999 0.00875713 -4.70404e-22)
(2.00009 0.00875126 2.29535e-22)
(2.00027 0.00868176 -1.00646e-22)
(2.00044 0.00855214 2.07134e-22)
(2.0006 0.00836688 9.4982e-23)
(2.00074 0.0081311 0)
(2.00088 0.00785012 8.56022e-23)
(2.00099 0.0075295 0)
(2.00109 0.0071746 0)
(2.00118 0.00679062 7.05294e-23)
(2.00125 0.00638238 -6.63981e-23)
(2.00131 0.00595437 0)
(2.00136 0.00551036 7.02077e-22)
(2.0014 0.00505401 4.16451e-22)
(2.00143 0.00458841 -8.83043e-22)
(2.00145 0.00411583 -1.99529e-22)
(2.00147 0.00363758 4.38035e-22)
(2.00148 0.00315596 -1.90757e-22)
(2.00149 0.00267233 -4.57266e-23)
(2.0015 0.00218736 0)
(2.0015 0.00170166 8.31159e-23)
(2.00151 0.00121559 -4.1838e-23)
(2.00151 0.000729576 0)
(2.00151 0.00024331 -1.81376e-24)
(2.00031 -5.2494e-05 1.82774e-22)
(2.0003 -0.000155793 0)
(2.00028 -0.000253996 0)
(2.00024 -0.000343836 1.83488e-22)
(2.00019 -0.000421821 -2.33027e-25)
(2.00013 -0.000484486 1.83952e-22)
(2.00006 -0.000528279 -1.84372e-22)
(1.99998 -0.000549574 -5.54349e-22)
(1.99988 -0.000544788 3.6969e-22)
(1.99977 -0.000510248 -7.42069e-22)
(1.99965 -0.000442098 -1.87101e-22)
(1.99951 -0.000336971 1.11576e-21)
(1.99937 -0.000191467 -2.9715e-21)
(1.99922 -2.16835e-06 -1.48923e-21)
(1.99906 0.000233368 1.49088e-21)
(1.9989 0.000517064 -1.85919e-22)
(1.99873 0.000850525 4.48139e-21)
(1.99857 0.00123453 -7.45837e-22)
(1.99841 0.00166902 -7.36319e-22)
(1.99826 0.00215168 -2.1937e-21)
(1.99813 0.00268052 3.71972e-22)
(1.99801 0.00324956 0)
(1.99792 0.00385352 0)
(1.99785 0.00448447 -3.5271e-22)
(1.99782 0.00513349 5.43237e-24)
(1.99782 0.00579008 3.47061e-22)
(1.99786 0.00644295 0)
(1.99793 0.00708005 3.25734e-22)
(1.99804 0.00768916 -4.85329e-22)
(1.99819 0.00825867 0)
(1.99837 0.00877719 1.43614e-22)
(1.99858 0.00923429 -5.84616e-22)
(1.99882 0.00962183 1.09661e-23)
(1.99907 0.00993365 5.40538e-22)
(1.99933 0.0101653 -1.15964e-23)
(1.9996 0.0103147 -2.5288e-22)
(1.99987 0.0103818 0)
(2.00013 0.0103683 2.17528e-22)
(2.00038 0.0102779 -1.15865e-23)
(2.00061 0.0101154 -2.05927e-22)
(2.00083 0.00988651 -1.88887e-22)
(2.00103 0.00959787 0)
(2.00121 0.00925613 0)
(2.00136 0.0088683 -7.80674e-23)
(2.0015 0.00844106 0)
(2.00161 0.00798071 -1.39232e-22)
(2.00171 0.00749314 6.63487e-23)
(2.00179 0.00698366 -1.21235e-22)
(2.00185 0.00645688 -6.91662e-22)
(2.0019 0.00591694 -4.2598e-22)
(2.00194 0.00536775 2.22572e-22)
(2.00197 0.004811 -1.01364e-23)
(2.00199 0.00424911 -2.85253e-22)
(2.00201 0.00368458 8.92989e-23)
(2.00202 0.00311841 0)
(2.00202 0.00255142 0)
(2.00203 0.00198421 -2.113e-24)
(2.00203 0.00141709 0)
(2.00203 0.00085037 0)
(2.00203 0.000283574 -3.94036e-23)
(2.00043 -6.47571e-05 0)
(2.00041 -0.000192317 0)
(2.00038 -0.000314084 1.83103e-22)
(2.00034 -0.000426361 -1.83519e-22)
(2.00027 -0.000525157 0)
(2.00019 -0.000606508 -3.68123e-22)
(2.0001 -0.000666329 1.83981e-22)
(1.99999 -0.000700394 1.84569e-22)
(1.99986 -0.000704491 0)
(1.99972 -0.000674366 0)
(1.99956 -0.000605426 -5.59409e-22)
(1.99938 -0.000493418 3.72845e-22)
(1.99919 -0.000334359 1.49653e-21)
(1.99899 -0.000123945 4.50512e-21)
(1.99879 0.000141269 0)
(1.99857 0.000463255 -7.53516e-22)
(1.99835 0.000844788 -2.99289e-21)
(1.99813 0.0012868 -7.53123e-22)
(1.99792 0.00179004 -1.4901e-21)
(1.99772 0.00235188 3.74275e-22)
(1.99753 0.00297061 -7.3409e-22)
(1.99738 0.00363896 2.95613e-24)
(1.99725 0.00435104 3.71085e-24)
(1.99716 0.00509754 3.62142e-22)
(1.99711 0.00586764 0)
(1.9971 0.00664866 0)
(1.99715 0.00742673 0)
(1.99725 0.008187 1.68638e-22)
(1.9974 0.00891439 -1.64215e-22)
(1.9976 0.00959446 0)
(1.99784 0.010213 2.96858e-22)
(1.99812 0.0107571 -3.00844e-22)
(1.99844 0.0112168 0)
(1.99877 0.0115845 0)
(1.99913 0.0118552 3.84303e-22)
(1.99949 0.0120264 -2.53809e-22)
(1.99984 0.0120985 -2.28989e-22)
(2.00019 0.0120741 4.45587e-22)
(2.00052 0.0119582 -2.166e-22)
(2.00083 0.011757 0)
(2.00112 0.0114779 2.75029e-22)
(2.00137 0.0111294 -1.81142e-22)
(2.0016 0.0107199 -8.14986e-23)
(2.00181 0.0102578 1.54262e-22)
(2.00198 0.00975142 0)
(2.00212 0.00920836 6.87037e-23)
(2.00225 0.00863558 -1.24739e-22)
(2.00235 0.00803933 1.21136e-22)
(2.00243 0.00742504 -4.11994e-22)
(2.00249 0.00679771 2.50839e-22)
(2.00254 0.00616117 1.04368e-22)
(2.00257 0.00551725 4.56846e-23)
(2.0026 0.00486949 -4.56986e-23)
(2.00261 0.00421989 -4.35465e-23)
(2.00263 0.00356948 7.92793e-23)
(2.00263 0.00291911 -1.33195e-24)
(2.00264 0.00226932 -7.77473e-23)
(2.00264 0.00162028 3.58548e-23)
(2.00264 0.000972092 0)
(2.00264 0.000324119 0)
(2.00057 -7.9064e-05 0)
(2.00055 -0.000234932 0)
(2.00051 -0.000384351 -3.6587e-22)
(2.00045 -0.000523207 0)
(2.00037 -0.000647022 0)
(2.00028 -0.000751343 1.42269e-25)
(2.00016 -0.000831551 0)
(2.00001 -0.000882819 -1.85088e-22)
(1.99985 -0.000900236 -1.85997e-22)
(1.99967 -0.000878909 1.85672e-22)
(1.99947 -0.000813548 -7.47414e-22)
(1.99924 -0.000698855 7.47539e-22)
(1.999 -0.000530001 0)
(1.99875 -0.00030195 -4.49515e-21)
(1.99848 -9.80974e-06 -7.53758e-22)
(1.9982 0.00034838 7.50492e-22)
(1.99791 0.000776999 -4.54777e-21)
(1.99763 0.00127753 1.50964e-21)
(1.99735 0.0018515 -7.56108e-22)
(1.99708 0.00249607 0)
(1.99684 0.00321014 -7.55774e-22)
(1.99663 0.00398519 0)
(1.99646 0.00481482 -3.67893e-22)
(1.99634 0.00568805 3.67758e-22)
(1.99627 0.00659215 -3.5797e-22)
(1.99626 0.00751178 1.78647e-22)
(1.99632 0.00843012 0)
(1.99644 0.00932898 -1.68617e-22)
(1.99663 0.0101897 4.98251e-22)
(1.99689 0.0109945 1.61842e-22)
(1.99721 0.0117259 -3.09521e-22)
(1.99758 0.0123676 -1.39008e-22)
(1.99799 0.0129077 2.92984e-22)
(1.99843 0.013337 0)
(1.99889 0.0136495 1.24612e-22)
(1.99936 0.0138427 -1.31037e-23)
(1.99982 0.0139176 -1.31172e-23)
(2.00027 0.0138781 -2.28529e-22)
(2.0007 0.0137306 2.0273e-22)
(2.0011 0.0134836 -3.00338e-22)
(2.00146 0.0131465 9.13512e-23)
(2.00179 0.0127298 0)
(2.00208 0.0122439 8.14251e-23)
(2.00233 0.0116994 -7.61913e-23)
(2.00255 0.0111062 0)
(2.00273 0.0104732 0)
(2.00288 0.00980874 1.24633e-22)
(2.003 0.00912004 -4.10557e-24)
(2.00309 0.00841319 -2.84414e-23)
(2.00317 0.00769436 4.06817e-22)
(2.00322 0.00696636 9.6576e-23)
(2.00326 0.00623255 4.28938e-23)
(2.00329 0.00549651 4.08752e-23)
(2.00331 0.0047599 -1.94304e-24)
(2.00332 0.00402376 -4.16784e-23)
(2.00333 0.00328898 0)
(2.00333 0.0025558 0)
(2.00333 0.00182426 -6.89691e-23)
(2.00333 0.00109425 0)
(2.00333 0.000364792 0)
(2.00074 -9.57296e-05 0)
(2.00072 -0.000284583 0)
(2.00067 -0.00046637 3.27139e-26)
(2.0006 -0.000636617 1.82721e-22)
(2.0005 -0.000790363 0)
(2.00038 -0.000922686 1.83765e-22)
(2.00023 -0.00102845 1.84524e-22)
(2.00006 -0.00110223 6.31352e-25)
(1.99986 -0.00113837 2.56822e-25)
(1.99963 -0.00113124 -1.86601e-22)
(1.99938 -0.00107486 1.86629e-22)
(1.9991 -0.000962838 1.8811e-22)
(1.9988 -0.000789189 -3.78033e-22)
(1.99848 -0.000548324 -3.03486e-21)
(1.99814 -0.000233429 -7.63752e-22)
(1.99778 0.000158435 3.04339e-21)
(1.99742 0.000632068 2.28641e-21)
(1.99706 0.0011907 -1.52986e-21)
(1.9967 0.00183671 1.52948e-21)
(1.99636 0.0025673 2.31154e-21)
(1.99605 0.0033825 3.76067e-22)
(1.99577 0.00427228 -2.47612e-24)
(1.99554 0.00522999 -3.74445e-22)
(1.99538 0.00624293 7.44461e-22)
(1.99528 0.00729619 -3.69997e-22)
(1.99526 0.00837139 1.79187e-22)
(1.99533 0.00944815 0)
(1.99549 0.0105042 1.75175e-22)
(1.99573 0.0115167 1.72718e-22)
(1.99606 0.0124637 -1.67106e-22)
(1.99647 0.0133233 1.52379e-22)
(1.99694 0.0140756 1.50572e-22)
(1.99747 0.0147061 1.37519e-22)
(1.99803 0.0152034 -2.83626e-22)
(1.99862 0.0155608 0)
(1.99922 0.0157759 -2.42078e-22)
(1.99981 0.0158506 1.39625e-23)
(2.00038 0.0157903 2.27965e-22)
(2.00092 0.0156038 -2.00634e-22)
(2.00142 0.015302 1.43389e-23)
(2.00187 0.014897 6.56903e-24)
(2.00228 0.014402 -2.46241e-22)
(2.00264 0.01383 1.62909e-22)
(2.00294 0.0131935 -7.17344e-23)
(2.00321 0.0125045 -6.64643e-23)
(2.00342 0.0117735 -2.4299e-22)
(2.0036 0.0110101 6.94698e-22)
(2.00374 0.0102225 8.80948e-26)
(2.00385 0.00941789 8.40301e-22)
(2.00394 0.00860312 2.74022e-22)
(2.004 0.00778005 -4.86271e-23)
(2.00404 0.00695363 -8.56747e-23)
(2.00407 0.00612716 -3.7981e-23)
(2.00409 0.00530187 3.79962e-23)
(2.0041 0.00447893 -3.66074e-23)
(2.0041 0.00365894 -3.31211e-23)
(2.0041 0.00284203 3.31345e-23)
(2.0041 0.00202787 1.72351e-24)
(2.0041 0.00121608 3.14014e-23)
(2.0041 0.000405341 0)
(2.00095 -0.000115063 0)
(2.00092 -0.000342186 0)
(2.00087 -0.000561697 0)
(2.00078 -0.0007688 -1.82662e-22)
(2.00066 -0.000958105 1.82655e-22)
(2.00051 -0.00112425 -1.83718e-22)
(2.00033 -0.00126158 1.83721e-22)
(2.00012 -0.00136408 0)
(1.99988 -0.00142538 0)
(1.99961 -0.00143899 1.86923e-22)
(1.9993 -0.00139817 -3.74847e-22)
(1.99896 -0.00129548 -1.61705e-25)
(1.99859 -0.00112349 7.57945e-22)
(1.99819 -0.000875748 2.2783e-21)
(1.99777 -0.000543742 1.53294e-21)
(1.99733 -0.000122431 -1.53578e-21)
(1.99688 0.000392891 -1.55e-21)
(1.99642 0.00100798 9.68098e-22)
(1.99597 0.00172633 -7.81116e-22)
(1.99554 0.00254553 4.79725e-23)
(1.99514 0.00346717 -1.54415e-21)
(1.99478 0.00448097 3.0922e-21)
(1.99449 0.00557872 -3.84718e-22)
(1.99427 0.00674634 0)
(1.99414 0.00796653 0)
(1.9941 0.00921754 0)
(1.99418 0.0104745 0)
(1.99437 0.0117106 -1.75177e-22)
(1.99467 0.0128973 1.77296e-22)
(1.99509 0.0140077 -7.3924e-25)
(1.9956 0.0150144 0)
(1.9962 0.0158931 1.45824e-22)
(1.99686 0.0166257 -1.55084e-22)
(1.99758 0.0171987 1.40846e-22)
(1.99832 0.0176043 2.57496e-22)
(1.99907 0.0178404 -3.82566e-22)
(1.99981 0.0179103 -2.27321e-22)
(2.00052 0.0178218 1.17665e-22)
(2.00119 0.0175865 0)
(2.0018 0.0172187 9.61931e-23)
(2.00236 0.016734 1.87442e-24)
(2.00286 0.0161486 2.20503e-24)
(2.00329 0.0154785 -7.48052e-23)
(2.00366 0.0147389 -1.32719e-22)
(2.00397 0.0139439 2.01852e-22)
(2.00422 0.0131058 -4.62239e-22)
(2.00443 0.0122354 4.62298e-22)
(2.00459 0.0113428 -8.45251e-22)
(2.00471 0.0104349 8.23525e-22)
(2.00481 0.00951932 -2.74051e-22)
(2.00487 0.00859778 0)
(2.00492 0.0076763 3.70122e-23)
(2.00494 0.00675742 -3.70285e-23)
(2.00496 0.00584223 0)
(2.00496 0.00493184 0)
(2.00496 0.00402648 0)
(2.00496 0.00312605 0)
(2.00496 0.00222969 0)
(2.00495 0.00133676 0)
(2.00495 0.000445462 0)
(2.0012 -0.000137356 0)
(2.00117 -0.000408619 0)
(2.0011 -0.000671808 0)
(2.001 -0.000921891 0)
(2.00086 -0.00115308 0)
(2.00068 -0.00135964 1.834e-22)
(2.00047 -0.0015354 -3.67576e-22)
(2.00022 -0.0016738 1.84201e-22)
(1.99993 -0.00176778 -1.86092e-22)
(1.9996 -0.00180991 -1.07415e-24)
(1.99923 -0.00179255 1.87237e-22)
(1.99883 -0.00170728 0)
(1.99838 -0.00154498 -3.83885e-22)
(1.9979 -0.0012979 -1.15797e-21)
(1.99738 -0.000956423 7.72525e-21)
(1.99685 -0.000512261 -3.09575e-21)
(1.99629 4.03299e-05 1.56204e-21)
(1.99572 0.000708753 2.5455e-24)
(1.99516 0.00149851 9.80086e-22)
(1.99462 0.00240856 -1.53772e-21)
(1.99411 0.00344179 -3.18255e-21)
(1.99366 0.00458899 1.63365e-23)
(1.99328 0.00583974 0)
(1.99299 0.00717919 -3.87075e-22)
(1.99281 0.00858728 4.76241e-24)
(1.99275 0.0100381 3.81822e-22)
(1.99284 0.0115019 0)
(1.99306 0.0129455 0)
(1.99343 0.014334 -1.7498e-22)
(1.99394 0.0156339 -3.41506e-22)
(1.99458 0.016811 3.2113e-22)
(1.99533 0.0178351 -1.65434e-22)
(1.99616 0.018684 0)
(1.99705 0.0193414 -4.16008e-22)
(1.99798 0.0197984 1.40903e-22)
(1.99891 0.0200534 2.42068e-22)
(1.99983 0.020112 -2.42465e-22)
(2.0007 0.0199852 1.09464e-22)
(2.00152 0.0196886 9.45117e-23)
(2.00227 0.0192407 -2.87869e-22)
(2.00294 0.0186614 2.21847e-24)
(2.00354 0.0179709 2.5797e-24)
(2.00405 0.0171888 7.47144e-23)
(2.00448 0.0163333 3.11813e-24)
(2.00484 0.0154208 0)
(2.00513 0.0144656 4.1323e-24)
(2.00536 0.0134796 4.35289e-22)
(2.00555 0.0124751 -7.34639e-22)
(2.00568 0.0114579 -1.6448e-23)
(2.00578 0.0104369 -4.22544e-23)
(2.00584 0.00941399 0)
(2.00588 0.00839523 3.34666e-23)
(2.00591 0.00738247 -3.3483e-23)
(2.00591 0.00637672 0)
(2.00591 0.00537884 0)
(2.00591 0.00438855 0)
(2.0059 0.00340537 2.54561e-23)
(2.00589 0.00242795 -2.54673e-23)
(2.00589 0.00145523 0)
(2.00588 0.000484799 0)
(2.0015 -0.000162875 0)
(2.00146 -0.000484658 0)
(2.00138 -0.000798041 0)
(2.00126 -0.00109782 0)
(2.0011 -0.00137789 0)
(2.0009 -0.00163223 -1.82954e-22)
(2.00065 -0.00185417 3.66803e-22)
(2.00036 -0.00203664 1.03894e-24)
(2.00002 -0.00217193 1.16006e-24)
(1.99963 -0.00225166 1.88661e-22)
(1.9992 -0.00226714 -5.63654e-22)
(1.99871 -0.00220897 -1.45069e-24)
(1.99818 -0.00206633 1.90352e-22)
(1.9976 -0.00182956 -3.89686e-22)
(1.99699 -0.00148781 -2.32337e-21)
(1.99634 -0.00102947 -2.34832e-21)
(1.99566 -0.000446436 3.60763e-24)
(1.99497 0.000269924 1.9813e-22)
(1.99427 0.0011283 5.99405e-22)
(1.9936 0.00213019 -2.39711e-21)
(1.99296 0.00327952 -2.51433e-21)
(1.99239 0.00456966 -7.96507e-22)
(1.9919 0.00598769 0)
(1.99152 0.00751862 -3.97516e-22)
(1.99128 0.00913914 4.43073e-24)
(1.99119 0.0108187 3.92516e-22)
(1.99127 0.0125212 1.94398e-22)
(1.99154 0.0142064 0)
(1.99198 0.0158305 3.68292e-22)
(1.99261 0.0173523 -5.26201e-22)
(1.9934 0.0187284 1.71425e-22)
(1.99432 0.0199213 -3.1268e-22)
(1.99535 0.0209033 4.54481e-22)
(1.99646 0.0216549 -1.722e-23)
(1.99761 0.0221661 -1.44047e-22)
(1.99876 0.0224364 1.25488e-22)
(1.99988 0.0224744 0)
(2.00095 0.0222956 0)
(2.00194 0.0219211 -9.10074e-23)
(2.00283 0.0213751 1.93607e-22)
(2.00363 0.0206828 8.52711e-23)
(2.00433 0.0198695 3.01748e-24)
(2.00493 0.0189588 -1.36833e-22)
(2.00543 0.0179724 -1.78893e-22)
(2.00584 0.0169291 6.94889e-22)
(2.00616 0.0158455 -4.39104e-22)
(2.00642 0.0147353 1.84422e-22)
(2.00661 0.0136116 5.49477e-22)
(2.00675 0.0124791 -5.95379e-22)
(2.00685 0.0113489 -7.66963e-23)
(2.00691 0.0102218 0)
(2.00695 0.00910401 -2.95832e-23)
(2.00696 0.00799653 2.96006e-23)
(2.00696 0.00690027 0)
(2.00695 0.00581561 2.3929e-23)
(2.00694 0.00474162 -2.39406e-23)
(2.00692 0.00367733 0)
(2.00691 0.00262074 0)
(2.0069 0.00157028 0)
(2.00689 0.000522958 0)
(2.00185 -0.000191852 0)
(2.0018 -0.000571001 0)
(2.00171 -0.000941589 0)
(2.00158 -0.00129833 0)
(2.00139 -0.0016349 0)
(2.00116 -0.00194507 0)
(2.00088 -0.00222176 -1.83394e-22)
(2.00054 -0.00245745 -1.19171e-24)
(2.00015 -0.0026438 -1.873e-22)
(1.9997 -0.00277159 1.84507e-22)
(1.99919 -0.00283093 -1.90733e-22)
(1.99863 -0.00281131 3.78351e-22)
(1.998 -0.00270027 -3.85594e-22)
(1.99732 -0.00248582 -3.78888e-24)
(1.99659 -0.00215527 3.5228e-21)
(1.99581 -0.00169403 -7.95137e-22)
(1.99499 -0.00109048 -1.60696e-21)
(1.99415 -0.000334243 -2.04456e-22)
(1.99331 0.000587538 -6.09136e-24)
(1.99247 0.00167999 2.47251e-21)
(1.99168 0.0029488 -1.47008e-22)
(1.99096 0.00439129 -4.12624e-22)
(1.99033 0.00599213 6.22074e-22)
(1.98984 0.00773699 2.08779e-22)
(1.98951 0.00959875 0)
(1.98937 0.0115416 2.04787e-22)
(1.98945 0.013522 -1.94496e-22)
(1.98975 0.0154904 3.80235e-22)
(1.99029 0.0173925 -5.64157e-22)
(1.99105 0.0191763 5.30913e-22)
(1.99201 0.020787 -1.76358e-22)
(1.99315 0.0221773 3.19636e-22)
(1.99443 0.0233129 -1.65644e-22)
(1.99579 0.0241697 4.28678e-22)
(1.9972 0.0247369 -1.933e-23)
(1.99861 0.0250159 -3.88197e-22)
(1.99997 0.0250198 -2.23385e-22)
(2.00126 0.0247705 2.23268e-22)
(2.00245 0.0242965 0)
(2.00351 0.0236295 9.04022e-23)
(2.00445 0.0228014 -7.94107e-23)
(2.00526 0.0218436 -6.81083e-23)
(2.00595 0.0207846 7.70399e-24)
(2.00651 0.0196499 0)
(2.00697 0.0184609 3.81267e-22)
(2.00733 0.0172376 -7.44659e-22)
(2.0076 0.015994 -2.49695e-22)
(2.0078 0.0147426 -8.37081e-23)
(2.00794 0.0134896 3.40165e-23)
(2.00804 0.0122466 -2.15357e-22)
(2.00809 0.011013 8.94114e-23)
(2.00811 0.00979514 -2.78867e-23)
(2.00811 0.00859299 0)
(2.0081 0.00740716 0)
(2.00807 0.0062373 0)
(2.00805 0.00508163 -1.85838e-23)
(2.00802 0.00393871 9.57318e-25)
(2.008 0.00280578 1.76471e-23)
(2.00798 0.00168058 0)
(2.00798 0.000559495 0)
(2.00226 -0.000224444 -1.78006e-22)
(2.00221 -0.00066816 1.78564e-22)
(2.00211 -0.00110337 0)
(2.00195 -0.00152475 -1.79848e-22)
(2.00175 -0.00192597 1.79828e-22)
(2.00148 -0.00230065 0)
(2.00116 -0.00264146 1.82776e-22)
(2.00078 -0.00294048 1.34957e-24)
(2.00033 -0.00318882 -3.69822e-22)
(1.99982 -0.00337647 -1.89108e-22)
(1.99924 -0.00349238 1.85578e-22)
(1.99858 -0.00352473 1.89364e-22)
(1.99786 -0.0034595 0)
(1.99706 -0.00328213 0)
(1.9962 -0.00297741 -3.83325e-22)
(1.99528 -0.00252767 -1.20092e-21)
(1.9943 -0.001917 1.60904e-21)
(1.99329 -0.00113233 -1.23407e-21)
(1.99226 -0.000155634 -8.49692e-24)
(1.99124 0.00102321 1.7087e-21)
(1.99026 0.00241258 5.8209e-21)
(1.98935 0.00401596 -8.48579e-22)
(1.98855 0.00581633 6.46563e-22)
(1.98791 0.00780037 2.15712e-22)
(1.98747 0.00993726 0)
(1.98726 0.0121852 -2.04955e-22)
(1.98732 0.0144914 0)
(1.98766 0.016795 1.97108e-22)
(1.98829 0.0190277 -6.45165e-24)
(1.98921 0.0211239 -7.52424e-22)
(1.99039 0.0230138 1.07195e-21)
(1.99179 0.0246373 -1.89866e-23)
(1.99336 0.0259507 -3.27212e-22)
(1.99504 0.0269251 2.667e-24)
(1.99676 0.0275485 -1.25729e-22)
(1.99848 0.0278254 3.89603e-22)
(2.00013 0.0277758 0)
(2.00167 0.0274308 0)
(2.00308 0.0268289 -1.81749e-22)
(2.00433 0.0260114 1.78694e-23)
(2.00542 0.0250193 3.18706e-22)
(2.00635 0.0238908 8.26814e-24)
(2.00712 0.0226605 8.90767e-24)
(2.00775 0.0213578 4.25067e-22)
(2.00825 0.020007 -2.33311e-21)
(2.00863 0.0186313 9.10412e-22)
(2.00892 0.017243 1.66056e-22)
(2.00912 0.0158567 0)
(2.00925 0.0144787 0)
(2.00933 0.0131198 1.19694e-22)
(2.00937 0.0117782 2.3241e-23)
(2.00937 0.0104601 -2.32547e-23)
(2.00935 0.00916439 0)
(2.00932 0.00789093 -1.68867e-23)
(2.00928 0.00663842 1.68965e-23)
(2.00924 0.00540427 0)
(2.0092 0.00418619 0)
(2.00917 0.00298066 1.26603e-23)
(2.00914 0.00178466 -1.26679e-23)
(2.00913 0.000593923 0)
(2.00274 -0.000260775 0)
(2.00268 -0.000776487 0)
(2.00257 -0.00128395 1.78061e-22)
(2.0024 -0.00177801 -1.7803e-22)
(2.00217 -0.00225244 0)
(2.00188 -0.00270083 0)
(2.00152 -0.0031158 -1.81957e-22)
(2.00109 -0.00348914 -1.50966e-24)
(2.00058 -0.00381149 3.68685e-22)
(2 -0.00407221 -1.8523e-22)
(1.99934 -0.00425911 -3.7868e-22)
(1.99859 -0.00435899 1.85872e-22)
(1.99776 -0.00435623 3.83649e-22)
(1.99684 -0.00423366 -3.94279e-22)
(1.99584 -0.00397306 -2.39176e-21)
(1.99475 -0.00355319 4.00342e-22)
(1.9936 -0.00295316 -8.25239e-22)
(1.9924 -0.00215601 1.87066e-21)
(1.99116 -0.00113743 -8.3895e-22)
(1.98991 0.000119281 -1.6942e-21)
(1.9887 0.00162607 -6.9467e-21)
(1.98756 0.0033959 1.40213e-20)
(1.98655 0.00541492 -4.32225e-22)
(1.98572 0.00766696 0)
(1.98512 0.0101189 0)
(1.98481 0.0127223 0)
(1.98483 0.0154132 0)
(1.98521 0.0181166 1.97356e-22)