/*--------------------------------*- C++ -*----------------------------------*\
  =========                 |
  \\      /  F ield         | OpenFOAM: The Open Source CFD Toolbox
   \\    /   O peration     | Website:  https://openfoam.org
    \\  /    A nd           | Version:  12
     \\/     M anipulation  |
\*---------------------------------------------------------------------------*/
FoamFile
{
    format      ascii;
    class       volScalarField;
    location    "340";
    object      k;
}
// * * * * * * * * * * * * * * * * * * * * * * * * * * * * * * * * * * * * * //

dimensions      [0 2 -2 0 0 0 0];

internalField   nonuniform List<scalar> 
16227
(
0.00914646
0.00914648
0.00914647
0.00914651
0.0091465
0.00914654
0.00914653
0.00914651
0.00914651
0.00914653
0.00914657
0.00914659
0.00914665
0.00914665
0.00914665
0.00914665
0.00914665
0.00914665
0.00914665
0.00914665
0.00914665
0.00914665
0.00914665
0.00914665
0.00914665
0.00914665
0.00914665
0.00914666
0.00914667
0.00914664
0.00914665
0.00914665
0.00914665
0.00914665
0.00914666
0.00914665
0.00914665
0.00914665
0.00914665
0.00914665
0.00914665
0.00914665
0.00914665
0.00914665
0.00914665
0.00914665
0.00914665
0.00914663
0.00914662
0.00914662
0.00914662
0.00914661
0.00914654
0.00914654
0.00914649
0.00914649
0.00914651
0.00914649
0.00914647
0.00914646
0.00848122
0.00848124
0.00848123
0.00848126
0.00848127
0.0084813
0.00848129
0.00848127
0.00848128
0.00848129
0.00848134
0.00848136
0.00848151
0.00848157
0.00848158
0.00848158
0.00848158
0.00848158
0.00848158
0.00848158
0.0084816
0.00848161
0.00848161
0.00848161
0.00848161
0.00848162
0.00848162
0.00848161
0.0084816
0.00848155
0.0084816
0.00848162
0.00848162
0.00848162
0.00848162
0.00848161
0.0084816
0.0084816
0.0084816
0.0084816
0.0084816
0.0084816
0.0084816
0.00848158
0.00848158
0.00848156
0.00848156
0.00848156
0.00848156
0.00848155
0.00848152
0.00848147
0.00848135
0.00848133
0.0084813
0.00848127
0.00848131
0.00848123
0.00848125
0.00848122
0.00790073
0.00790075
0.00790075
0.00790077
0.00790076
0.00790085
0.0079008
0.00790079
0.0079008
0.00790081
0.00790085
0.00790087
0.00790112
0.00790118
0.00790119
0.0079012
0.0079012
0.0079012
0.00790122
0.00790117
0.00790121
0.00790122
0.00790122
0.00790123
0.00790123
0.00790123
0.00790123
0.00790125
0.00790124
0.00790117
0.00790124
0.00790125
0.00790126
0.00790127
0.00790128
0.00790128
0.00790128
0.00790127
0.00790126
0.00790127
0.00790127
0.00790127
0.00790126
0.00790124
0.00790124
0.00790124
0.00790123
0.00790123
0.00790122
0.00790119
0.00790115
0.00790095
0.00790087
0.00790086
0.00790084
0.00790083
0.00790086
0.00790077
0.00790078
0.00790076
0.00739017
0.00739019
0.00739019
0.0073902
0.00739021
0.00739027
0.00739027
0.00739024
0.00739024
0.00739024
0.00739028
0.00739034
0.0073906
0.00739067
0.00739069
0.0073907
0.00739071
0.00739072
0.00739066
0.00739054
0.00739066
0.0073907
0.0073907
0.00739072
0.00739073
0.00739074
0.00739075
0.00739075
0.00739074
0.00739067
0.00739076
0.00739079
0.0073908
0.00739081
0.00739083
0.00739084
0.00739086
0.00739086
0.00739087
0.00739087
0.00739088
0.00739087
0.00739087
0.00739087
0.00739086
0.00739085
0.00739085
0.00739084
0.00739084
0.00739081
0.00739068
0.00739048
0.00739038
0.0073904
0.00739039
0.00739041
0.00739038
0.0073903
0.0073903
0.00739028
0.00693795
0.00693796
0.00693796
0.00693798
0.00693798
0.00693804
0.00693806
0.00693799
0.006938
0.006938
0.00693803
0.00693808
0.00693833
0.00693845
0.00693847
0.00693847
0.00693847
0.00693845
0.00693824
0.00693817
0.00693837
0.00693845
0.00693846
0.00693847
0.00693847
0.00693849
0.0069385
0.00693853
0.00693853
0.00693845
0.00693857
0.00693862
0.00693866
0.00693868
0.0069387
0.00693873
0.00693876
0.00693879
0.00693881
0.00693882
0.00693884
0.00693886
0.00693885
0.00693885
0.00693885
0.00693886
0.00693885
0.00693884
0.00693884
0.00693875
0.0069385
0.00693838
0.0069383
0.00693832
0.00693833
0.00693838
0.00693831
0.00693823
0.00693823
0.00693822
0.00653484
0.00653486
0.00653485
0.00653487
0.00653486
0.0065349
0.00653494
0.00653488
0.00653485
0.00653483
0.00653483
0.00653486
0.00653497
0.00653525
0.0065353
0.00653532
0.00653531
0.00653521
0.00653497
0.00653494
0.00653517
0.00653525
0.00653525
0.00653526
0.00653528
0.00653531
0.00653534
0.00653536
0.00653538
0.00653533
0.00653546
0.00653553
0.00653559
0.00653565
0.0065357
0.00653575
0.00653581
0.00653585
0.00653589
0.00653592
0.00653595
0.00653597
0.00653599
0.00653601
0.00653601
0.00653601
0.00653601
0.00653601
0.006536
0.00653585
0.0065356
0.00653547
0.00653543
0.00653547
0.00653551
0.00653549
0.00653543
0.00653536
0.00653536
0.00653534
0.00617346
0.00617348
0.00617347
0.00617347
0.00617346
0.00617349
0.00617352
0.00617349
0.00617343
0.00617341
0.00617337
0.00617336
0.00617345
0.0061737
0.00617382
0.00617383
0.00617379
0.0061735
0.00617338
0.00617339
0.00617363
0.0061737
0.00617371
0.00617372
0.00617375
0.00617378
0.00617382
0.00617387
0.00617391
0.00617387
0.00617404
0.00617415
0.00617423
0.00617432
0.00617441
0.00617449
0.00617457
0.00617465
0.00617471
0.00617478
0.00617482
0.00617487
0.0061749
0.00617492
0.00617495
0.00617496
0.00617496
0.00617497
0.00617488
0.00617461
0.00617446
0.00617437
0.00617436
0.00617442
0.00617442
0.0061744
0.00617435
0.00617428
0.00617429
0.00617427
0.00584781
0.0058478
0.0058478
0.0058478
0.00584778
0.00584779
0.00584781
0.00584779
0.00584772
0.00584766
0.00584761
0.00584755
0.00584757
0.00584768
0.00584795
0.00584802
0.00584794
0.0058476
0.0058475
0.00584751
0.00584775
0.00584782
0.00584783
0.00584785
0.00584787
0.00584792
0.00584799
0.00584805
0.00584811
0.0058481
0.00584831
0.00584845
0.00584859
0.00584871
0.00584883
0.00584896
0.00584908
0.00584918
0.00584929
0.00584938
0.00584946
0.00584952
0.00584958
0.00584962
0.00584966
0.00584967
0.00584969
0.00584968
0.00584954
0.00584927
0.00584913
0.00584908
0.00584911
0.00584914
0.00584912
0.0058491
0.00584905
0.00584899
0.005849
0.00584898
0.00555294
0.00555294
0.00555293
0.00555292
0.0055529
0.00555289
0.0055529
0.00555286
0.00555281
0.00555272
0.00555264
0.00555255
0.00555253
0.00555259
0.0055529
0.00555297
0.0055528
0.00555247
0.00555238
0.00555238
0.00555261
0.00555268
0.00555268
0.0055527
0.00555274
0.0055528
0.00555288
0.00555298
0.00555307
0.00555309
0.00555333
0.00555353
0.00555371
0.00555388
0.00555405
0.00555422
0.00555439
0.00555455
0.00555468
0.00555481
0.00555492
0.00555503
0.0055551
0.00555516
0.00555521
0.00555525
0.00555526
0.00555519
0.00555491
0.00555476
0.00555467
0.00555469
0.00555468
0.0055547
0.00555468
0.00555467
0.00555462
0.00555456
0.00555456
0.00555455
0.00528481
0.00528481
0.00528479
0.00528478
0.00528474
0.00528472
0.00528472
0.00528465
0.00528459
0.00528452
0.0052844
0.00528427
0.00528423
0.00528428
0.0052845
0.00528456
0.00528422
0.00528402
0.00528393
0.00528393
0.00528415
0.00528421
0.00528421
0.00528423
0.00528428
0.00528436
0.00528446
0.00528458
0.00528471
0.00528478
0.00528507
0.00528531
0.00528554
0.00528577
0.005286
0.00528623
0.00528644
0.00528665
0.00528685
0.00528701
0.00528715
0.00528728
0.0052874
0.00528748
0.00528755
0.0052876
0.00528761
0.00528751
0.00528722
0.00528709
0.00528705
0.00528704
0.00528704
0.00528705
0.00528703
0.00528702
0.00528697
0.00528692
0.00528691
0.0052869
0.00504002
0.00504002
0.00503999
0.00503996
0.00503993
0.0050399
0.00503986
0.00503978
0.0050397
0.0050396
0.00503949
0.00503932
0.0050392
0.00503918
0.00503923
0.00503939
0.00503907
0.00503888
0.0050388
0.00503878
0.00503892
0.00503901
0.00503902
0.00503905
0.0050391
0.00503919
0.00503932
0.00503948
0.00503965
0.00503975
0.0050401
0.0050404
0.00504069
0.00504099
0.00504129
0.00504158
0.00504186
0.00504212
0.00504236
0.00504258
0.00504276
0.00504293
0.00504307
0.00504317
0.00504326
0.00504331
0.00504326
0.00504311
0.00504292
0.00504282
0.00504279
0.00504278
0.00504278
0.00504279
0.00504277
0.00504275
0.0050427
0.00504265
0.00504265
0.00504263
0.00481573
0.00481572
0.00481569
0.00481565
0.0048156
0.00481556
0.0048155
0.00481541
0.0048153
0.00481517
0.00481504
0.00481487
0.00481469
0.0048146
0.00481458
0.00481468
0.00481441
0.00481422
0.00481409
0.00481403
0.00481402
0.00481421
0.00481426
0.00481428
0.00481434
0.00481445
0.00481461
0.0048148
0.00481501
0.00481518
0.00481559
0.00481596
0.00481632
0.00481669
0.00481706
0.00481742
0.00481776
0.00481809
0.00481838
0.00481865
0.00481889
0.00481909
0.00481926
0.0048194
0.0048195
0.00481952
0.00481938
0.0048193
0.00481919
0.0048191
0.00481907
0.00481906
0.00481905
0.00481906
0.00481903
0.00481901
0.00481896
0.00481891
0.0048189
0.00481889
0.00460952
0.0046095
0.00460947
0.00460942
0.00460936
0.0046093
0.00460922
0.00460911
0.00460897
0.00460882
0.00460866
0.00460846
0.00460826
0.00460806
0.00460794
0.00460785
0.00460774
0.00460759
0.00460743
0.00460733
0.00460726
0.00460746
0.00460752
0.00460754
0.00460761
0.00460774
0.00460792
0.00460815
0.00460842
0.00460864
0.00460911
0.00460956
0.00461
0.00461045
0.0046109
0.00461135
0.00461176
0.00461216
0.00461253
0.00461285
0.00461314
0.00461339
0.00461358
0.00461375
0.00461384
0.00461385
0.00461372
0.00461369
0.00461357
0.00461349
0.00461346
0.00461345
0.00461344
0.00461343
0.00461341
0.00461338
0.00461333
0.00461328
0.00461327
0.00461325
0.00441934
0.00441933
0.00441929
0.00441923
0.00441915
0.00441907
0.00441897
0.00441884
0.00441868
0.0044185
0.0044183
0.00441807
0.00441784
0.00441761
0.00441738
0.00441724
0.00441714
0.00441696
0.00441677
0.00441663
0.00441653
0.00441671
0.00441675
0.00441677
0.00441685
0.00441699
0.0044172
0.00441748
0.00441779
0.00441809
0.00441863
0.00441916
0.0044197
0.00442024
0.00442078
0.00442131
0.00442182
0.00442229
0.00442272
0.00442312
0.00442345
0.00442374
0.00442397
0.00442414
0.0044242
0.00442416
0.00442415
0.00442412
0.00442402
0.00442396
0.00442392
0.0044239
0.00442388
0.00442386
0.00442384
0.0044238
0.00442375
0.0044237
0.00442369
0.00442366
0.00424345
0.00424344
0.00424339
0.00424332
0.00424323
0.00424313
0.00424301
0.00424285
0.00424266
0.00424245
0.00424222
0.00424195
0.00424168
0.00424141
0.00424115
0.00424095
0.00424081
0.00424058
0.00424034
0.00424017
0.00424003
0.00424017
0.0042402
0.00424021
0.00424029
0.00424045
0.00424069
0.00424101
0.00424139
0.00424176
0.00424239
0.00424301
0.00424365
0.00424429
0.00424493
0.00424556
0.00424616
0.00424672
0.00424723
0.00424768
0.00424807
0.0042484
0.00424867
0.00424882
0.0042488
0.00424885
0.00424886
0.00424885
0.00424877
0.00424871
0.00424869
0.00424865
0.00424862
0.0042486
0.00424855
0.00424852
0.00424846
0.00424841
0.00424839
0.00424837
0.00408034
0.00408031
0.00408026
0.00408018
0.00408007
0.00407996
0.00407981
0.00407962
0.00407941
0.00407917
0.0040789
0.00407859
0.00407829
0.00407796
0.00407766
0.00407741
0.00407721
0.00407694
0.00407664
0.00407641
0.00407625
0.00407629
0.00407633
0.00407634
0.00407642
0.0040766
0.00407688
0.00407725
0.00407769
0.00407815
0.00407886
0.00407959
0.00408034
0.0040811
0.00408185
0.00408259
0.00408329
0.00408395
0.00408453
0.00408505
0.0040855
0.00408587
0.00408616
0.0040863
0.00408631
0.00408636
0.00408639
0.00408634
0.00408628
0.00408624
0.00408622
0.00408618
0.00408614
0.00408611
0.00408606
0.00408601
0.00408594
0.00408589
0.00408587
0.00408584
0.00392869
0.00392866
0.0039286
0.0039285
0.00392839
0.00392825
0.00392808
0.00392786
0.00392762
0.00392735
0.00392704
0.00392669
0.00392634
0.00392597
0.00392561
0.0039253
0.00392505
0.00392471
0.00392437
0.00392406
0.00392384
0.00392371
0.00392383
0.00392387
0.00392395
0.00392414
0.00392445
0.00392488
0.0039254
0.00392594
0.00392676
0.00392761
0.00392848
0.00392936
0.00393025
0.0039311
0.00393192
0.00393267
0.00393334
0.00393393
0.00393443
0.00393483
0.00393508
0.0039352
0.0039353
0.00393539
0.00393542
0.00393537
0.0039353
0.00393528
0.00393523
0.00393518
0.00393513
0.00393508
0.00393502
0.00393496
0.00393489
0.00393483
0.00393481
0.00393478
0.00378737
0.00378733
0.00378726
0.00378716
0.00378702
0.00378687
0.00378668
0.00378643
0.00378616
0.00378585
0.0037855
0.00378511
0.0037847
0.00378429
0.00378386
0.0037835
0.00378318
0.00378279
0.00378237
0.003782
0.00378171
0.0037815
0.0037816
0.00378164
0.00378172
0.00378193
0.00378227
0.00378276
0.00378335
0.003784
0.00378494
0.00378592
0.00378693
0.00378796
0.00378899
0.00378998
0.00379091
0.00379176
0.00379252
0.00379318
0.00379373
0.00379414
0.00379431
0.00379451
0.00379466
0.00379477
0.0037948
0.00379474
0.00379468
0.00379463
0.00379458
0.00379451
0.00379444
0.00379438
0.00379431
0.00379423
0.00379415
0.00379409
0.00379406
0.00379403
0.00365539
0.00365535
0.00365527
0.00365516
0.00365501
0.00365483
0.00365462
0.00365434
0.00365404
0.00365369
0.0036533
0.00365287
0.0036524
0.00365193
0.00365144
0.00365101
0.00365061
0.00365015
0.00364969
0.00364924
0.00364888
0.00364862
0.00364862
0.00364867
0.00364875
0.00364896
0.00364935
0.0036499
0.00365059
0.00365135
0.00365242
0.00365355
0.00365472
0.00365591
0.00365709
0.00365823
0.00365929
0.00366025
0.00366109
0.00366181
0.00366241
0.00366282
0.00366302
0.00366325
0.00366342
0.00366351
0.0036635
0.00366344
0.00366339
0.00366334
0.00366326
0.00366317
0.00366308
0.00366301
0.00366291
0.00366283
0.00366274
0.00366267
0.00366263
0.0036626
0.00353188
0.00353183
0.00353175
0.00353162
0.00353146
0.00353126
0.00353103
0.00353072
0.00353038
0.00353
0.00352957
0.00352908
0.00352857
0.00352804
0.00352749
0.00352697
0.00352648
0.00352596
0.00352542
0.00352491
0.00352445
0.00352412
0.00352394
0.00352405
0.00352416
0.00352439
0.00352481
0.00352543
0.00352623
0.00352713
0.00352835
0.00352965
0.003531
0.00353237
0.00353373
0.00353502
0.00353621
0.00353728
0.00353818
0.00353893
0.00353952
0.00353994
0.00354025
0.0035405
0.00354068
0.00354074
0.0035407
0.00354064
0.00354058
0.0035405
0.0035404
0.00354029
0.00354018
0.00354008
0.00353997
0.00353987
0.00353977
0.00353969
0.00353965
0.00353961
0.00341608
0.00341602
0.00341594
0.0034158
0.00341562
0.0034154
0.00341514
0.00341481
0.00341444
0.00341401
0.00341354
0.00341301
0.00341244
0.00341184
0.00341121
0.00341058
0.00341
0.00340944
0.00340883
0.00340824
0.00340771
0.00340728
0.00340701
0.0034071
0.0034072
0.00340744
0.00340791
0.00340861
0.00340952
0.00341057
0.00341197
0.00341348
0.00341504
0.00341661
0.00341815
0.00341961
0.00342094
0.00342209
0.00342306
0.00342386
0.00342442
0.00342488
0.00342525
0.00342551
0.00342566
0.00342567
0.00342562
0.00342555
0.00342547
0.00342537
0.00342524
0.0034251
0.00342496
0.00342483
0.00342471
0.00342459
0.00342447
0.00342439
0.00342434
0.00342429
0.00330731
0.00330724
0.00330715
0.003307
0.0033068
0.00330657
0.00330628
0.00330593
0.00330552
0.00330506
0.00330454
0.00330397
0.00330334
0.00330268
0.00330198
0.00330126
0.00330059
0.00329995
0.00329925
0.00329856
0.00329795
0.00329744
0.0032971
0.00329711
0.0032972
0.00329746
0.00329798
0.00329878
0.00329985
0.00330109
0.00330269
0.00330443
0.00330623
0.00330803
0.00330979
0.00331142
0.00331284
0.00331406
0.0033151
0.00331593
0.00331651
0.003317
0.00331736
0.0033176
0.0033177
0.00331767
0.00331759
0.00331751
0.00331739
0.00331724
0.00331708
0.0033169
0.00331674
0.00331658
0.00331643
0.0033163
0.00331617
0.00331607
0.00331601
0.00331596
0.00320496
0.0032049
0.00320479
0.00320463
0.00320442
0.00320417
0.00320386
0.00320348
0.00320305
0.00320255
0.00320198
0.00320136
0.00320068
0.00319995
0.00319918
0.00319839
0.00319761
0.00319687
0.00319609
0.00319532
0.0031946
0.00319401
0.00319361
0.00319349
0.00319371
0.00319397
0.00319455
0.00319547
0.00319671
0.00319816
0.00320002
0.00320203
0.0032041
0.00320617
0.00320816
0.00321
0.00321142
0.00321266
0.00321366
0.0032145
0.00321515
0.00321564
0.00321597
0.00321614
0.00321616
0.00321611
0.00321601
0.00321588
0.00321572
0.00321552
0.00321532
0.00321511
0.00321491
0.00321472
0.00321455
0.00321439
0.00321425
0.00321414
0.00321408
0.00321402
0.00310851
0.00310844
0.00310833
0.00310816
0.00310794
0.00310767
0.00310734
0.00310694
0.00310647
0.00310594
0.00310533
0.00310466
0.00310393
0.00310314
0.0031023
0.00310141
0.00310052
0.00309965
0.0030988
0.00309796
0.00309717
0.00309649
0.00309607
0.00309601
0.00314284
0.00314356
0.00314418
0.00314516
0.0031465
0.00314807
0.00315005
0.00315223
0.00315445
0.00315667
0.00315881
0.00316078
0.00311724
0.00311746
0.00311841
0.00311923
0.00311985
0.00312029
0.00312054
0.00312061
0.00312057
0.00312047
0.00312033
0.00312015
0.00311992
0.00311968
0.00311943
0.00311918
0.00311893
0.00311872
0.00311852
0.00311834
0.00311818
0.00311806
0.00311798
0.00311792
0.00301748
0.00301741
0.00301729
0.00301712
0.00301688
0.00301659
0.00301625
0.00301582
0.00301532
0.00301476
0.00301411
0.00301339
0.00301261
0.00301177
0.00301086
0.00300989
0.00300889
0.0030079
0.00300695
0.00300606
0.0030052
0.0030045
0.00300413
0.00304831
0.00304633
0.00304722
0.00304792
0.00304904
0.00305059
0.00305245
0.00305474
0.00305725
0.00305982
0.00306237
0.00306482
0.00306694
0.00307098
0.00302901
0.00302897
0.00302964
0.00303015
0.00303048
0.00303061
0.00303058
0.00303046
0.00303029
0.00303007
0.00302981
0.00302952
0.00302922
0.00302891
0.00302862
0.00302833
0.00302808
0.00302785
0.00302765
0.00302747
0.00302734
0.00302725
0.00302718
0.00293145
0.00293136
0.00293124
0.00293106
0.00293082
0.00293052
0.00293015
0.0029297
0.00292918
0.00292858
0.00292791
0.00292715
0.00292632
0.00292542
0.00292445
0.00292341
0.00292233
0.00292123
0.00292019
0.00291921
0.0029183
0.00291765
0.00291712
0.00295718
0.00295562
0.00297831
0.00297931
0.0029806
0.00298236
0.00298444
0.00298695
0.00298968
0.0029925
0.0029953
0.00299804
0.00297988
0.00298279
0.00294577
0.00294491
0.00294531
0.00294563
0.00294577
0.00294573
0.00294558
0.00294537
0.00294511
0.00294479
0.00294445
0.00294408
0.00294371
0.00294335
0.002943
0.00294267
0.00294238
0.00294212
0.00294189
0.0029417
0.00294155
0.00294145
0.00294138
0.00285002
0.00284993
0.00284981
0.00284962
0.00284937
0.00284905
0.00284867
0.00284821
0.00284767
0.00284704
0.00284634
0.00284554
0.00284467
0.00284372
0.0028427
0.0028416
0.00284044
0.00283926
0.00283811
0.00283705
0.00283612
0.0028356
0.00283488
0.0028711
0.00287048
0.00289019
0.0028922
0.00289393
0.00289607
0.00289852
0.00290121
0.00290414
0.00290718
0.00291024
0.00291318
0.002899
0.0029002
0.00286755
0.00286593
0.00286589
0.00286591
0.00286578
0.00286556
0.00286527
0.00286493
0.00286453
0.00286411
0.00286366
0.00286321
0.00286276
0.00286233
0.00286193
0.00286156
0.00286123
0.00286093
0.00286068
0.00286047
0.0028603
0.0028602
0.00286011
0.00277285
0.00277276
0.00277264
0.00277244
0.00277218
0.00277186
0.00277147
0.00277099
0.00277043
0.00276979
0.00276906
0.00276824
0.00276733
0.00276635
0.00276527
0.00276412
0.00276292
0.00276167
0.00276045
0.00275931
0.00275838
0.00275802
0.00275717
0.00279001
0.0027905
0.00280696
0.00281071
0.00281369
0.00281716
0.00282072
0.00282406
0.00282706
0.00282979
0.00283236
0.00283493
0.00282385
0.00282319
0.00279413
0.00279175
0.00279105
0.00279065
0.00279022
0.00278976
0.00278928
0.00278876
0.00278821
0.00278766
0.0027871
0.00278655
0.00278603
0.00278553
0.00278507
0.00278464
0.00278427
0.00278395
0.00278367
0.00278343
0.00278325
0.00278314
0.00278305
0.00269964
0.00269954
0.00269942
0.00269922
0.00269896
0.00269863
0.00269823
0.00269774
0.00269717
0.00269652
0.00269577
0.00269493
0.002694
0.00269298
0.00269188
0.00269069
0.00268945
0.00268818
0.00268692
0.00268578
0.00268487
0.00268469
0.00268377
0.00271375
0.00271583
0.00272892
0.00273577
0.00274195
0.00274923
0.00275619
0.00276096
0.00276296
0.00276326
0.00276319
0.00276372
0.00275507
0.00275191
0.00272529
0.00272211
0.00272051
0.00271961
0.00271879
0.00271803
0.00271728
0.00271655
0.00271583
0.00271512
0.00271444
0.00271379
0.00271318
0.00271261
0.00271208
0.00271161
0.0027112
0.00271084
0.00271053
0.00271028
0.00271008
0.00270996
0.00270986
0.00263009
0.00263
0.00262987
0.00262967
0.00262941
0.00262908
0.00262867
0.00262818
0.0026276
0.00262694
0.00262618
0.00262533
0.00262439
0.00262336
0.00262224
0.00262104
0.00261978
0.00261851
0.00261728
0.0026162
0.00261544
0.00261542
0.00261451
0.00264225
0.00264643
0.00265652
0.00267034
0.00268453
0.00270417
0.0027236
0.00273258
0.00272788
0.00271686
0.00270719
0.00270118
0.0026929
0.00268658
0.00266089
0.00265688
0.00265415
0.00265254
0.0026512
0.00265003
0.00264897
0.00264799
0.00264707
0.0026462
0.00264539
0.00264463
0.00264393
0.00264328
0.0026427
0.00264218
0.00264172
0.00264132
0.00264099
0.00264071
0.00264051
0.00264037
0.00264027
0.00256396
0.00256386
0.00256373
0.00256354
0.00256327
0.00256294
0.00256253
0.00256204
0.00256147
0.0025608
0.00256005
0.0025592
0.00255826
0.00255723
0.00255611
0.00255491
0.00255368
0.00255244
0.00255129
0.00255034
0.00254985
0.00255
0.00254928
0.00257558
0.00258204
0.0025924
0.00262039
0.00265837
0.00272628
0.00280853
0.00283466
0.00278694
0.00272011
0.00267519
0.00265102
0.00263748
0.00262759
0.00260071
0.00259585
0.00259168
0.00258915
0.00258714
0.00258549
0.00258407
0.00258281
0.00258167
0.00258063
0.00257968
0.00257881
0.00257801
0.00257729
0.00257665
0.00257607
0.00257558
0.00257515
0.00257479
0.00257449
0.00257427
0.00257412
0.00257401
0.002501
0.0025009
0.00250077
0.00250058
0.00250032
0.00249999
0.00249959
0.0024991
0.00249854
0.00249788
0.00249714
0.0024963
0.00249537
0.00249436
0.00249326
0.0024921
0.00249092
0.00248976
0.00248874
0.002488
0.00248789
0.00248821
0.00248813
0.00251406
0.00252211
0.00254092
0.00259802
0.00271263
0.0028867
0.00307118
0.0031281
0.00303229
0.00286222
0.00269349
0.00262034
0.00258811
0.00257518
0.00254452
0.0025387
0.00253278
0.00252913
0.00252633
0.00252414
0.00252231
0.00252075
0.00251938
0.00251816
0.00251706
0.00251608
0.00251519
0.00251439
0.00251369
0.00251306
0.00251253
0.00251207
0.00251168
0.00251136
0.00251113
0.00251097
0.00251086
0.002441
0.0024409
0.00244077
0.00244059
0.00244033
0.00244001
0.00243962
0.00243915
0.00243859
0.00243795
0.00243723
0.00243641
0.00243551
0.00243453
0.00243349
0.00243239
0.00243129
0.00243027
0.00242944
0.00242898
0.00242936
0.00242984
0.002431
0.00245779
0.00246712
0.00250693
0.00261785
0.00285462
0.00320476
0.00412932
0.00419714
0.0035949
0.00312311
0.00281098
0.00261841
0.00254345
0.00252937
0.00249169
0.00248501
0.0024771
0.00247217
0.00246848
0.00246569
0.00246344
0.00246156
0.00245994
0.00245854
0.0024573
0.0024562
0.00245523
0.00245436
0.0024536
0.00245293
0.00245235
0.00245186
0.00245146
0.00245112
0.00245088
0.00245071
0.0024506
0.00238377
0.00238366
0.00238354
0.00238336
0.00238312
0.00238281
0.00238243
0.00238197
0.00238144
0.00238082
0.00238013
0.00237935
0.00237849
0.00237757
0.00237659
0.00237559
0.00237462
0.00237377
0.00237321
0.00237313
0.00237408
0.00237479
0.00237796
0.00240618
0.00241814
0.00248861
0.00267077
0.00309886
0.00464393
0.0055189
0.00351138
0.00300869
0.00264957
0.00250048
0.0024891
0.00244153
0.00243425
0.00242421
0.00241792
0.00241328
0.00240987
0.00240718
0.00240498
0.00240313
0.00240156
0.00240018
0.00239898
0.00239792
0.00239698
0.00239617
0.00239546
0.00239485
0.00239434
0.00239391
0.00239357
0.00239331
0.00239315
0.00239302
0.00232911
0.00232901
0.0023289
0.00232873
0.00232849
0.0023282
0.00232784
0.0023274
0.00232689
0.00232631
0.00232566
0.00232492
0.00232413
0.00232328
0.0023224
0.00232152
0.00232071
0.0023201
0.00231987
0.00232028
0.00232189
0.0023232
0.00232937
0.0023589
0.0023761
0.00247209
0.00270204
0.00418856
0.240341
0.504754
0.00577886
0.00387259
0.00320631
0.00269976
0.00245698
0.00245308
0.00239361
0.00238593
0.00237385
0.00236614
0.00236056
0.00235652
0.00235339
0.00235089
0.00234881
0.00234706
0.00234556
0.00234425
0.00234312
0.00234212
0.00234126
0.00234051
0.00233987
0.00233934
0.00233889
0.00233853
0.00233827
0.0023381
0.00233797
0.00227688
0.00227678
0.00227667
0.00227651
0.00227629
0.00227601
0.00227567
0.00227526
0.00227479
0.00227425
0.00227364
0.00227297
0.00227225
0.00227149
0.00227072
0.00226999
0.0022694
0.00226908
0.00226926
0.00227027
0.00227275
0.00227546
0.0022864
0.00231753
0.00234441
0.00245486
0.00274046
0.00663706
0.326014
0.796648
1.25798
0.00609931
0.00416105
0.00339366
0.0027503
0.00241731
0.00241945
0.00234772
0.00233946
0.00232561
0.00231648
0.00231002
0.00230539
0.00230185
0.00229906
0.00229677
0.00229487
0.00229324
0.00229185
0.00229064
0.0022896
0.00228869
0.0022879
0.00228724
0.00228668
0.00228622
0.00228585
0.00228558
0.0022854
0.00228527
0.00222691
0.00222681
0.00222671
0.00222656
0.00222636
0.0022261
0.00222579
0.00222541
0.00222497
0.00222448
0.00222392
0.00222332
0.00222269
0.00222204
0.00222141
0.00222086
0.00222051
0.00222052
0.00222119
0.00222295
0.0022266
0.00223217
0.00225098
0.00228622
0.00233975
0.00249146
0.0032149
0.0264497
0.769494
0.78478
0.16677
0.00535299
0.00432822
0.00349699
0.00278802
0.00238661
0.00238624
0.00230378
0.00229439
0.0022791
0.00226865
0.00226143
0.00225626
0.00225236
0.00224931
0.00224684
0.0022448
0.00224307
0.0022416
0.00224034
0.00223924
0.0022383
0.00223749
0.0022368
0.00223623
0.00223575
0.00223537
0.00223509
0.00223491
0.00223478
0.00217906
0.00217897
0.00217888
0.00217874
0.00217855
0.00217832
0.00217803
0.00217769
0.00217729
0.00217685
0.00217636
0.00217584
0.0021753
0.00217476
0.00217428
0.00217393
0.00217384
0.00217422
0.00217546
0.00217816
0.00218345
0.00219393
0.00222531
0.00227119
0.00239962
0.00275153
0.0204045
0.414874
0.63088
0.323439
0.0261071
0.00510828
0.00440857
0.00352563
0.0027976
0.00236718
0.00235198
0.00226178
0.00225045
0.00223401
0.0022224
0.00221457
0.00220894
0.00220475
0.00220148
0.00219886
0.00219671
0.0021949
0.00219337
0.00219206
0.00219093
0.00218996
0.00218912
0.00218842
0.00218783
0.00218735
0.00218696
0.00218667
0.00218649
0.00218635
0.00213321
0.00213311
0.00213303
0.00213291
0.00213274
0.00213253
0.00213227
0.00213197
0.00213162
0.00213123
0.00213081
0.00213037
0.00212993
0.00212951
0.00212918
0.00212901
0.0021292
0.00213005
0.00213196
0.00213573
0.00214316
0.00216089
0.00221048
0.00227951
0.00263398
0.00520178
0.102213
0.383115
0.187041
0.0701388
0.00681112
0.00520561
0.00442284
0.00349768
0.00277212
0.00235718
0.00231637
0.00222181
0.00220749
0.00219009
0.00217754
0.00216927
0.00216328
0.00215886
0.00215544
0.00215271
0.00215047
0.0021486
0.00214703
0.00214568
0.00214452
0.00214353
0.00214268
0.00214197
0.00214137
0.00214088
0.00214049
0.0021402
0.00214001
0.00213987
0.00208922
0.00208913
0.00208906
0.00208895
0.0020888
0.00208861
0.00208839
0.00208813
0.00208782
0.00208749
0.00208714
0.00208679
0.00208644
0.00208612
0.00208594
0.00208603
0.00208657
0.0020879
0.00209047
0.00209538
0.00210538
0.00213258
0.00220597
0.002321
0.00333014
0.0138942
0.174362
0.239845
0.0440643
0.0163483
0.00505288
0.00534997
0.00440292
0.00343694
0.00272079
0.00235317
0.00228084
0.0021837
0.0021654
0.00214712
0.0021339
0.00212535
0.00211911
0.00211458
0.00211106
0.00210825
0.00210597
0.00210406
0.00210245
0.00210108
0.00209991
0.00209891
0.00209805
0.00209733
0.00209673
0.00209623
0.00209584
0.00209555
0.00209536
0.00209522
0.00204699
0.00204691
0.00204685
0.00204675
0.00204662
0.00204646
0.00204627
0.00204605
0.00204579
0.00204552
0.00204523
0.00204495
0.00204468
0.00204451
0.00204453
0.00204487
0.00204574
0.00204752
0.00205074
0.00205678
0.00206974
0.00210799
0.00220945
0.00240366
0.00453097
0.0255058
0.196616
0.17543
0.0144533
0.00657393
0.00542823
0.00543889
0.00437929
0.0033599
0.00268295
0.00235101
0.00224661
0.00214755
0.00212416
0.00210503
0.0020915
0.00208282
0.00207641
0.00207179
0.00206823
0.00206539
0.00206309
0.00206116
0.00205954
0.00205817
0.00205699
0.00205598
0.00205512
0.0020544
0.0020538
0.0020533
0.00205291
0.00205262
0.00205243
0.00205229
0.00200642
0.00200634
0.00200629
0.00200621
0.0020061
0.00200597
0.00200581
0.00200562
0.00200542
0.00200519
0.00200494
0.00200473
0.00200459
0.00200458
0.00200478
0.00200534
0.00200652
0.00200873
0.00201254
0.00201968
0.00203573
0.00208554
0.00221527
0.00251092
0.0058449
0.034572
0.192474
0.142488
0.0181518
0.00530956
0.00619249
0.00581531
0.00443576
0.0033068
0.00267771
0.00234769
0.00221518
0.0021128
0.0020837
0.00206391
0.00205025
0.00204153
0.00203511
0.00203044
0.00202684
0.00202401
0.00202173
0.00201982
0.00201821
0.00201684
0.00201566
0.00201466
0.0020138
0.00201308
0.00201248
0.00201199
0.0020116
0.00201131
0.00201112
0.00201098
0.00196741
0.00196733
0.00196729
0.00196722
0.00196714
0.00196703
0.0019669
0.00196675
0.00196658
0.00196639
0.00196622
0.00196611
0.00196608
0.0019662
0.00196656
0.00196732
0.00196877
0.00197135
0.00197567
0.0019838
0.00200289
0.00206344
0.00221827
0.00261637
0.00689934
0.0393811
0.180769
0.135091
0.0297561
0.00926485
0.00753143
0.00662887
0.00502628
0.003373
0.0027156
0.00233669
0.00218713
0.00207888
0.00204388
0.00202368
0.00201021
0.00200144
0.00199509
0.00199048
0.0019869
0.00198408
0.00198182
0.00197995
0.00197836
0.001977
0.00197584
0.00197485
0.001974
0.00197329
0.00197269
0.00197221
0.00197182
0.00197153
0.00197135
0.00197121
0.00192986
0.00192979
0.00192976
0.00192971
0.00192964
0.00192956
0.00192946
0.00192934
0.0019292
0.00192907
0.00192898
0.00192895
0.00192902
0.00192926
0.00192975
0.00193069
0.00193237
0.00193527
0.00193999
0.00194899
0.00197076
0.00204026
0.00221413
0.00269536
0.00752763
0.0406998
0.166894
0.13982
0.0386909
0.0132376
0.0138633
0.011622
0.00712733
0.00430424
0.00283472
0.00230434
0.00216131
0.00204518
0.00200469
0.00198434
0.0019713
0.00196259
0.00195632
0.0019518
0.0019483
0.00194552
0.00194329
0.00194145
0.00193991
0.00193858
0.00193744
0.00193646
0.00193563
0.00193493
0.00193435
0.00193387
0.00193349
0.00193321
0.00193303
0.00193288
0.0018937
0.00189364
0.00189362
0.00189358
0.00189353
0.00189347
0.00189338
0.00189329
0.0018932
0.00189314
0.00189312
0.00189316
0.00189332
0.00189365
0.00189426
0.00189535
0.00189721
0.00190036
0.00190539
0.00191508
0.00193901
0.00201519
0.00220074
0.00273419
0.00772519
0.040131
0.152369
0.145189
0.0526816
0.0176998
0.013293
0.0152973
0.01253
0.00917469
0.00314063
0.00225084
0.00213573
0.00201114
0.00196617
0.00194598
0.00193348
0.00192493
0.00191884
0.00191438
0.00191095
0.00190823
0.00190608
0.00190429
0.00190278
0.0019015
0.00190039
0.00189944
0.00189863
0.00189794
0.00189737
0.0018969
0.00189653
0.00189625
0.00189607
0.00189593
0.00185886
0.0018588
0.00185878
0.00185876
0.00185872