/*--------------------------------*- C++ -*----------------------------------*\
  =========                 |
  \\      /  F ield         | OpenFOAM: The Open Source CFD Toolbox
   \\    /   O peration     | Website:  https://openfoam.org
    \\  /    A nd           | Version:  12
     \\/     M anipulation  |
\*---------------------------------------------------------------------------*/
FoamFile
{
    format      ascii;
    class       volScalarField;
    location    "340";
    object      nut;
}
// * * * * * * * * * * * * * * * * * * * * * * * * * * * * * * * * * * * * * //

dimensions      [0 2 -1 0 0 0 0];

internalField   nonuniform List<scalar> 
16227
(
0.000978543
0.000978543
0.000978543
0.000978543
0.000978543
0.000978543
0.000978543
0.000978543
0.000978543
0.000978543
0.000978543
0.000978543
0.000978544
0.000978544
0.000978544
0.000978544
0.000978544
0.000978544
0.000978544
0.000978544
0.000978544
0.000978544
0.000978544
0.000978544
0.000978544
0.000978544
0.000978544
0.000978544
0.000978544
0.000978544
0.000978544
0.000978544
0.000978544
0.000978544
0.000978544
0.000978544
0.000978544
0.000978544
0.000978544
0.000978544
0.000978544
0.000978544
0.000978544
0.000978544
0.000978544
0.000978544
0.000978544
0.000978544
0.000978544
0.000978544
0.000978544
0.000978544
0.000978543
0.000978543
0.000978543
0.000978543
0.000978543
0.000978543
0.000978543
0.000978543
0.000972834
0.000972834
0.000972834
0.000972834
0.000972834
0.000972834
0.000972834
0.000972834
0.000972834
0.000972834
0.000972835
0.000972835
0.000972836
0.000972836
0.000972837
0.000972837
0.000972837
0.000972837
0.000972837
0.000972837
0.000972837
0.000972837
0.000972837
0.000972837
0.000972837
0.000972837
0.000972837
0.000972837
0.000972837
0.000972837
0.000972837
0.000972838
0.000972838
0.000972838
0.000972838
0.000972838
0.000972838
0.000972838
0.000972837
0.000972837
0.000972837
0.000972837
0.000972837
0.000972837
0.000972837
0.000972837
0.000972837
0.000972837
0.000972837
0.000972837
0.000972836
0.000972836
0.000972835
0.000972835
0.000972834
0.000972834
0.000972835
0.000972834
0.000972834
0.000972834
0.000967494
0.000967494
0.000967494
0.000967494
0.000967494
0.000967495
0.000967494
0.000967494
0.000967494
0.000967495
0.000967495
0.000967495
0.000967497
0.000967498
0.000967498
0.000967498
0.000967498
0.000967498
0.000967498
0.000967498
0.000967498
0.000967499
0.000967499
0.000967499
0.000967499
0.000967499
0.000967499
0.0009675
0.0009675
0.000967499
0.0009675
0.0009675
0.0009675
0.0009675
0.0009675
0.0009675
0.0009675
0.0009675
0.0009675
0.0009675
0.0009675
0.0009675
0.0009675
0.000967499
0.000967499
0.000967499
0.000967499
0.000967499
0.000967499
0.000967498
0.000967498
0.000967496
0.000967495
0.000967495
0.000967495
0.000967495
0.000967495
0.000967494
0.000967494
0.000967494
0.000962481
0.000962481
0.000962481
0.000962481
0.000962481
0.000962481
0.000962481
0.000962481
0.000962481
0.000962481
0.000962481
0.000962482
0.000962484
0.000962485
0.000962485
0.000962485
0.000962486
0.000962486
0.000962485
0.000962484
0.000962486
0.000962486
0.000962486
0.000962487
0.000962487
0.000962487
0.000962488
0.000962488
0.000962488
0.000962488
0.000962488
0.000962489
0.000962489
0.000962489
0.000962489
0.00096249
0.00096249
0.00096249
0.00096249
0.00096249
0.00096249
0.000962489
0.000962489
0.000962489
0.000962489
0.000962488
0.000962488
0.000962488
0.000962488
0.000962487
0.000962486
0.000962484
0.000962483
0.000962483
0.000962483
0.000962483
0.000962483
0.000962482
0.000962482
0.000962482
0.000957759
0.000957759
0.000957759
0.000957759
0.000957759
0.000957759
0.000957759
0.000957759
0.000957759
0.000957759
0.000957759
0.00095776
0.000957762
0.000957763
0.000957763
0.000957763
0.000957764
0.000957764
0.000957761
0.000957761
0.000957763
0.000957764
0.000957765
0.000957765
0.000957765
0.000957766
0.000957766
0.000957767
0.000957767
0.000957767
0.000957768
0.000957769
0.000957769
0.00095777
0.00095777
0.00095777
0.000957771
0.000957771
0.000957771
0.000957771
0.000957771
0.000957771
0.000957771
0.00095777
0.00095777
0.00095777
0.00095777
0.000957769
0.000957769
0.000957768
0.000957765
0.000957764
0.000957763
0.000957763
0.000957763
0.000957764
0.000957763
0.000957762
0.000957762
0.000957762
0.000953298
0.000953298
0.000953298
0.000953298
0.000953298
0.000953298
0.000953298
0.000953298
0.000953297
0.000953297
0.000953297
0.000953297
0.000953298
0.000953301
0.000953302
0.000953302
0.000953302
0.000953301
0.000953299
0.000953299
0.000953301
0.000953303
0.000953303
0.000953303
0.000953304
0.000953305
0.000953305
0.000953306
0.000953307
0.000953306
0.000953308
0.000953309
0.00095331
0.000953311
0.000953312
0.000953312
0.000953313
0.000953313
0.000953314
0.000953314
0.000953314
0.000953314
0.000953314
0.000953314
0.000953314
0.000953313
0.000953313
0.000953313
0.000953312
0.00095331
0.000953308
0.000953306
0.000953306
0.000953306
0.000953306
0.000953306
0.000953305
0.000953304
0.000953304
0.000953304
0.000949072
0.000949072
0.000949072
0.000949072
0.000949071
0.000949072
0.000949072
0.000949072
0.000949071
0.00094907
0.00094907
0.00094907
0.000949071
0.000949073
0.000949075
0.000949075
0.000949075
0.000949072
0.00094907
0.000949071
0.000949074
0.000949075
0.000949076
0.000949076
0.000949077
0.000949078
0.000949079
0.00094908
0.000949081
0.000949081
0.000949083
0.000949085
0.000949086
0.000949087
0.000949089
0.00094909
0.000949091
0.000949092
0.000949092
0.000949093
0.000949093
0.000949094
0.000949094
0.000949094
0.000949094
0.000949093
0.000949093
0.000949093
0.000949092
0.000949088
0.000949086
0.000949085
0.000949085
0.000949085
0.000949085
0.000949085
0.000949084
0.000949083
0.000949083
0.000949083
0.000945059
0.000945059
0.000945059
0.000945059
0.000945058
0.000945058
0.000945059
0.000945058
0.000945057
0.000945056
0.000945056
0.000945055
0.000945055
0.000945056
0.00094506
0.000945061
0.00094506
0.000945056
0.000945055
0.000945055
0.000945059
0.00094506
0.000945061
0.000945061
0.000945062
0.000945063
0.000945065
0.000945066
0.000945067
0.000945068
0.000945071
0.000945073
0.000945075
0.000945077
0.000945079
0.000945081
0.000945082
0.000945084
0.000945085
0.000945086
0.000945087
0.000945087
0.000945087
0.000945088
0.000945088
0.000945088
0.000945087
0.000945087
0.000945085
0.000945081
0.000945079
0.000945078
0.000945079
0.000945079
0.000945078
0.000945078
0.000945077
0.000945076
0.000945076
0.000945076
0.00094124
0.00094124
0.00094124
0.000941239
0.000941239
0.000941239
0.000941239
0.000941238
0.000941238
0.000941236
0.000941235
0.000941234
0.000941233
0.000941234
0.000941238
0.000941239
0.000941237
0.000941233
0.000941232
0.000941233
0.000941236
0.000941238
0.000941238
0.000941239
0.00094124
0.000941242
0.000941244
0.000941246
0.000941247
0.000941249
0.000941252
0.000941255
0.000941258
0.000941261
0.000941263
0.000941266
0.000941268
0.00094127
0.000941272
0.000941273
0.000941275
0.000941276
0.000941276
0.000941277
0.000941277
0.000941277
0.000941277
0.000941275
0.000941271
0.000941269
0.000941268
0.000941268
0.000941267
0.000941267
0.000941267
0.000941267
0.000941266
0.000941265
0.000941265
0.000941265
0.000937598
0.000937598
0.000937597
0.000937597
0.000937596
0.000937596
0.000937596
0.000937595
0.000937594
0.000937593
0.000937591
0.000937589
0.000937588
0.000937589
0.000937592
0.000937593
0.000937589
0.000937586
0.000937586
0.000937586
0.00093759
0.000937591
0.000937592
0.000937593
0.000937594
0.000937596
0.000937599
0.000937601
0.000937604
0.000937606
0.00093761
0.000937614
0.000937618
0.000937621
0.000937625
0.000937628
0.000937631
0.000937634
0.000937637
0.000937639
0.000937641
0.000937642
0.000937644
0.000937644
0.000937645
0.000937645
0.000937645
0.000937643
0.000937638
0.000937636
0.000937635
0.000937635
0.000937635
0.000937634
0.000937634
0.000937633
0.000937632
0.000937632
0.000937632
0.000937631
0.000934118
0.000934118
0.000934117
0.000934117
0.000934116
0.000934116
0.000934115
0.000934114
0.000934112
0.000934111
0.000934109
0.000934107
0.000934105
0.000934104
0.000934105
0.000934107
0.000934103
0.000934101
0.0009341
0.000934101
0.000934103
0.000934105
0.000934107
0.000934108
0.00093411
0.000934112
0.000934115
0.000934118
0.000934121
0.000934124
0.00093413
0.000934135
0.00093414
0.000934144
0.000934149
0.000934154
0.000934158
0.000934162
0.000934165
0.000934168
0.000934171
0.000934173
0.000934174
0.000934175
0.000934176
0.000934176
0.000934175
0.000934172
0.000934169
0.000934167
0.000934166
0.000934166
0.000934165
0.000934165
0.000934164
0.000934164
0.000934163
0.000934162
0.000934162
0.000934162
0.000930787
0.000930787
0.000930787
0.000930786
0.000930785
0.000930784
0.000930783
0.000930782
0.00093078
0.000930778
0.000930775
0.000930773
0.00093077
0.000930769
0.000930769
0.00093077
0.000930767
0.000930764
0.000930763
0.000930763
0.000930764
0.000930768
0.000930769
0.000930771
0.000930773
0.000930776
0.000930779
0.000930784
0.000930788
0.000930792
0.000930798
0.000930805
0.000930811
0.000930817
0.000930823
0.000930829
0.000930834
0.000930839
0.000930844
0.000930847
0.000930851
0.000930853
0.000930855
0.000930857
0.000930858
0.000930857
0.000930855
0.000930853
0.000930851
0.000930849
0.000930848
0.000930847
0.000930847
0.000930846
0.000930845
0.000930845
0.000930844
0.000930843
0.000930843
0.000930842
0.000927595
0.000927594
0.000927594
0.000927593
0.000927591
0.00092759
0.000927589
0.000927587
0.000927585
0.000927582
0.000927579
0.000927576
0.000927573
0.00092757
0.000927568
0.000927567
0.000927566
0.000927564
0.000927563
0.000927562
0.000927562
0.000927567
0.000927569
0.000927571
0.000927573
0.000927577
0.000927581
0.000927586
0.000927591
0.000927596
0.000927605
0.000927613
0.00092762
0.000927628
0.000927635
0.000927643
0.000927649
0.000927656
0.000927661
0.000927666
0.00092767
0.000927674
0.000927676
0.000927678
0.000927679
0.000927678
0.000927675
0.000927674
0.000927671
0.000927669
0.000927668
0.000927667
0.000927667
0.000927666
0.000927665
0.000927664
0.000927663
0.000927662
0.000927662
0.000927662
0.000924529
0.000924529
0.000924528
0.000924527
0.000924525
0.000924524
0.000924522
0.00092452
0.000924517
0.000924514
0.00092451
0.000924507
0.000924503
0.000924499
0.000924496
0.000924494
0.000924493
0.000924491
0.000924489
0.000924488
0.000924488
0.000924493
0.000924495
0.000924497
0.0009245
0.000924504
0.00092451
0.000924516
0.000924522
0.000924529
0.000924538
0.000924548
0.000924558
0.000924567
0.000924576
0.000924585
0.000924593
0.000924601
0.000924608
0.000924614
0.000924619
0.000924623
0.000924626
0.000924628
0.000924628
0.000924626
0.000924625
0.000924624
0.000924621
0.000924619
0.000924618
0.000924617
0.000924616
0.000924615
0.000924614
0.000924613
0.000924611
0.000924611
0.00092461
0.000924609
0.000921582
0.000921581
0.000921581
0.000921579
0.000921577
0.000921575
0.000921573
0.00092157
0.000921567
0.000921563
0.000921559
0.000921555
0.00092155
0.000921546
0.000921542
0.000921539
0.000921538
0.000921535
0.000921533
0.000921532
0.000921531
0.000921536
0.000921538
0.000921541
0.000921545
0.00092155
0.000921556
0.000921563
0.000921571
0.00092158
0.000921591
0.000921603
0.000921614
0.000921626
0.000921637
0.000921648
0.000921658
0.000921667
0.000921675
0.000921682
0.000921688
0.000921692
0.000921696
0.000921697
0.000921696
0.000921695
0.000921694
0.000921693
0.000921691
0.000921688
0.000921687
0.000921685
0.000921684
0.000921683
0.000921682
0.00092168
0.000921679
0.000921678
0.000921677
0.000921676
0.000918745
0.000918744
0.000918743
0.000918742
0.00091874
0.000918737
0.000918735
0.000918731
0.000918727
0.000918723
0.000918718
0.000918713
0.000918708
0.000918702
0.000918698
0.000918694
0.000918692
0.000918689
0.000918686
0.000918685
0.000918684
0.000918688
0.000918691
0.000918695
0.000918699
0.000918705
0.000918713
0.000918722
0.000918731
0.000918741
0.000918755
0.000918769
0.000918783
0.000918796
0.00091881
0.000918823
0.000918834
0.000918845
0.000918854
0.000918863
0.000918869
0.000918874
0.000918878
0.000918879
0.000918877
0.000918877
0.000918876
0.000918873
0.000918871
0.000918869
0.000918867
0.000918865
0.000918864
0.000918862
0.00091886
0.000918859
0.000918857
0.000918856
0.000918855
0.000918854
0.000916011
0.00091601
0.000916009
0.000916007
0.000916005
0.000916002
0.000915999
0.000915995
0.00091599
0.000915985
0.00091598
0.000915974
0.000915967
0.000915961
0.000915956
0.000915952
0.000915949
0.000915945
0.000915942
0.000915939
0.000915939
0.00091594
0.000915946
0.000915951
0.000915957
0.000915964
0.000915973
0.000915984
0.000915996
0.000916008
0.000916024
0.000916041
0.000916057
0.000916073
0.000916089
0.000916103
0.000916117
0.000916129
0.00091614
0.000916149
0.000916156
0.000916162
0.000916164
0.000916164
0.000916164
0.000916163
0.000916162
0.000916159
0.000916156
0.000916154
0.000916151
0.000916149
0.000916147
0.000916145
0.000916143
0.000916141
0.000916139
0.000916137
0.000916137
0.000916135
0.000913374
0.000913372
0.000913371
0.000913369
0.000913366
0.000913363
0.000913359
0.000913354
0.000913349
0.000913343
0.000913337
0.00091333
0.000913323
0.000913316
0.00091331
0.000913305
0.000913301
0.000913297
0.000913293
0.00091329
0.00091329
0.000913291
0.000913298
0.000913304
0.000913311
0.00091332
0.000913332
0.000913345
0.000913359
0.000913374
0.000913394
0.000913413
0.000913432
0.000913451
0.000913469
0.000913486
0.000913501
0.000913514
0.000913526
0.000913536
0.000913543
0.000913548
0.000913548
0.000913549
0.000913549
0.000913548
0.000913546
0.000913543
0.000913539
0.000913536
0.000913533
0.00091353
0.000913527
0.000913524
0.000913522
0.000913519
0.000913517
0.000913515
0.000913514
0.000913513
0.000910826
0.000910825
0.000910823
0.000910821
0.000910818
0.000910814
0.00091081
0.000910804
0.000910798
0.000910792
0.000910785
0.000910777
0.000910769
0.000910761
0.000910754
0.000910748
0.000910744
0.000910739
0.000910735
0.000910732
0.000910732
0.000910734
0.000910742
0.00091075
0.000910759
0.000910771
0.000910785
0.000910801
0.000910819
0.000910837
0.00091086
0.000910882
0.000910904
0.000910926
0.000910946
0.000910965
0.000910982
0.000910996
0.000911008
0.000911017
0.000911024
0.000911028
0.000911028
0.000911028
0.000911027
0.000911026
0.000911022
0.000911017
0.000911013
0.000911009
0.000911005
0.000911001
0.000910998
0.000910994
0.000910991
0.000910988
0.000910986
0.000910984
0.000910982
0.000910981
0.000908364
0.000908362
0.00090836
0.000908358
0.000908354
0.00090835
0.000908345
0.000908339
0.000908333
0.000908325
0.000908317
0.000908309
0.0009083
0.000908291
0.000908283
0.000908276
0.000908271
0.000908267
0.000908263
0.000908261
0.000908261
0.000908264
0.000908271
0.000908284
0.000908297
0.000908312
0.00090833
0.00090835
0.000908372
0.000908395
0.000908422
0.000908448
0.000908473
0.000908497
0.00090852
0.00090854
0.000908557
0.000908571
0.000908582
0.000908589
0.000908594
0.000908596
0.000908596
0.000908596
0.000908594
0.00090859
0.000908584
0.000908579
0.000908574
0.000908569
0.000908564
0.000908558
0.000908554
0.000908549
0.000908546
0.000908542
0.000908539
0.000908536
0.000908535
0.000908534
0.000905981
0.00090598
0.000905978
0.000905975
0.000905971
0.000905966
0.000905961
0.000905954
0.000905947
0.000905939
0.00090593
0.000905921
0.000905911
0.000905901
0.000905892
0.000905884
0.000905879
0.000905875
0.000905872
0.000905871
0.000905873
0.000905879
0.000905889
0.000905907
0.000905924
0.000905943
0.000905967
0.000905993
0.000906021
0.000906049
0.000906081
0.000906112
0.00090614
0.000906167
0.00090619
0.00090621
0.000906226
0.000906238
0.000906245
0.00090625
0.000906251
0.000906251
0.00090625
0.000906247
0.000906243
0.000906236
0.000906229
0.000906222
0.000906215
0.000906209
0.000906202
0.000906196
0.00090619
0.000906184
0.00090618
0.000906176
0.000906172
0.000906169
0.000906167
0.000906165
0.000903674
0.000903673
0.00090367
0.000903667
0.000903663
0.000903658
0.000903652
0.000903645
0.000903637
0.000903628
0.000903619
0.000903609
0.000903598
0.000903588
0.000903578
0.00090357
0.000903564
0.000903562
0.00090356
0.000903561
0.000903566
0.000903577
0.000903593
0.000903616
0.00090364
0.000903668
0.000903699
0.000903735
0.000903773
0.00090381
0.000903849
0.000903885
0.000903917
0.000903944
0.000903966
0.000903984
0.000903993
0.000903997
0.000903999
0.000903998
0.000903995
0.00090399
0.000903985
0.000903979
0.000903971
0.000903961
0.000903952
0.000903943
0.000903934
0.000903925
0.000903916
0.000903908
0.000903901
0.000903895
0.000903889
0.000903884
0.000903879
0.000903876
0.000903874
0.000903872
0.000901439
0.000901437
0.000901435
0.000901431
0.000901427
0.000901421
0.000901415
0.000901408
0.000901399
0.00090139
0.000901379
0.000901369
0.000901358
0.000901347
0.000901338
0.00090133
0.000901325
0.000901323
0.000901324
0.00090133
0.000901341
0.000901359
0.000901386
0.000901421
0.000901463
0.000901499
0.000901542
0.000901591
0.000901643
0.000901692
0.00090174
0.000901782
0.000901815
0.000901841
0.000901862
0.000901877
0.000901867
0.000901855
0.000901843
0.000901832
0.000901821
0.00090181
0.000901799
0.000901787
0.000901774
0.00090176
0.000901748
0.000901736
0.000901724
0.000901713
0.000901702
0.000901692
0.000901683
0.000901675
0.000901668
0.000901662
0.000901657
0.000901654
0.000901651
0.000901649
0.000899272
0.00089927
0.000899267
0.000899264
0.000899259
0.000899253
0.000899246
0.000899238
0.000899229
0.00089922
0.000899209
0.000899198
0.000899187
0.000899177
0.000899167
0.00089916
0.000899156
0.000899156
0.000899163
0.000899175
0.000899197
0.000899229
0.000899279
0.000899347
0.000900366
0.000900422
0.000900475
0.000900534
0.000900595
0.000900652
0.000900704
0.000900747
0.000900779
0.000900803
0.000900821
0.000900832
0.000899886
0.00089982
0.000899783
0.000899755
0.000899731
0.00089971
0.000899689
0.000899669
0.000899649
0.000899631
0.000899614
0.000899598
0.000899583
0.000899568
0.000899555
0.000899543
0.000899532
0.000899523
0.000899515
0.000899507
0.000899502
0.000899497
0.000899494
0.000899492
0.000897169
0.000897167
0.000897164
0.000897161
0.000897156
0.00089715
0.000897143
0.000897134
0.000897125
0.000897115
0.000897104
0.000897093
0.000897082
0.000897073
0.000897065
0.000897059
0.000897057
0.000897062
0.000897075
0.0008971
0.000897137
0.000897198
0.000897286
0.000898304
0.000898279
0.000898364
0.000898444
0.00089853
0.000898617
0.000898694
0.000898758
0.000898803
0.00089883
0.000898843
0.000898849
0.000898837
0.000898885
0.000897926
0.000897826
0.000897769
0.000897725
0.000897687
0.000897653
0.000897622
0.000897594
0.000897569
0.000897547
0.000897526
0.000897506
0.000897488
0.000897472
0.000897457
0.000897445
0.000897433
0.000897423
0.000897415
0.000897408
0.000897403
0.0008974
0.000897397
0.000895128
0.000895126
0.000895123
0.000895119
0.000895114
0.000895108
0.000895101
0.000895092
0.000895083
0.000895073
0.000895062
0.000895052
0.000895042
0.000895033
0.000895027
0.000895025
0.000895028
0.00089504
0.000895064
0.000895104
0.000895166
0.000895274
0.000895379
0.000896306
0.000896343
0.000896924
0.000897036
0.00089716
0.00089728
0.000897377
0.000897443
0.000897476
0.000897484
0.000897479
0.000897474
0.000897049
0.00089698
0.000896135
0.000895978
0.000895877
0.000895802
0.000895741
0.000895689
0.000895645
0.000895606
0.000895573
0.000895543
0.000895515
0.000895491
0.000895469
0.000895449
0.000895432
0.000895416
0.000895403
0.000895392
0.000895382
0.000895374
0.000895368
0.000895365
0.000895361
0.000893146
0.000893143
0.000893141
0.000893137
0.000893132
0.000893125
0.000893118
0.00089311
0.000893101
0.000893091
0.000893081
0.000893071
0.000893063
0.000893057
0.000893054
0.000893057
0.000893067
0.000893089
0.000893128
0.00089319
0.000893285
0.000893459
0.000893568
0.000894414
0.000894626
0.000895071
0.000895336
0.000895567
0.000895764
0.000895895
0.000895946
0.000895929
0.000895871
0.000895802
0.000895745
0.000895457
0.000895238
0.000894465
0.000894249
0.000894082
0.000893965
0.000893872
0.000893797
0.000893735
0.000893683
0.000893638
0.000893599
0.000893564
0.000893534
0.000893507
0.000893483
0.000893462
0.000893444
0.000893429
0.000893416
0.000893405
0.000893396
0.000893389
0.000893385
0.000893381
0.00089122
0.000891217
0.000891214
0.00089121
0.000891206
0.000891199
0.000891192
0.000891185
0.000891176
0.000891167
0.000891158
0.00089115
0.000891144
0.000891142
0.000891144
0.000891154
0.000891174
0.00089121
0.00089127
0.000891363
0.000891503
0.000891759
0.000891867
0.000892664
0.000893139
0.000893338
0.000893943
0.000894454
0.000894918
0.000895231
0.000895318
0.000895189
0.000894928
0.000894635
0.000894382
0.000894171
0.000893702
0.00089294
0.000892654
0.000892392
0.000892217
0.000892081
0.000891975
0.00089189
0.00089182
0.000891762
0.000891712
0.000891669
0.000891632
0.000891599
0.000891571
0.000891547
0.000891526
0.000891508
0.000891493
0.00089148
0.00089147
0.000891463
0.000891458
0.000891454
0.000889347
0.000889344
0.000889342
0.000889338
0.000889333
0.000889328
0.000889321
0.000889314
0.000889306
0.000889298
0.000889291
0.000889286
0.000889283
0.000889286
0.000889295
0.000889314
0.000889348
0.000889404
0.000889491
0.000889626
0.000889828
0.000890179
0.000890294
0.000891091
0.00089195
0.000891834
0.000893143
0.000894326
0.000895567
0.000896498
0.000896741
0.000896238
0.000895313
0.000894343
0.000893556
0.000893332
0.000892448
0.000891586
0.000891211
0.000890816
0.000890562
0.00089037
0.000890224
0.000890109
0.000890017
0.000889942
0.00088988
0.000889827
0.000889782
0.000889743
0.00088971
0.000889682
0.000889658
0.000889637
0.00088962
0.000889606
0.000889595
0.000889586
0.000889581
0.000889576
0.000887526
0.000887523
0.000887521
0.000887517
0.000887513
0.000887508
0.000887502
0.000887496
0.000887489
0.000887484
0.000887479
0.000887477
0.000887479
0.000887488
0.000887506
0.000887537
0.000887589
0.00088767
0.000887795
0.000887984
0.00088827
0.000888723
0.000888864
0.000889746
0.000891117
0.000890747
0.000893543
0.000896461
0.000900193
0.000903507
0.00090438
0.000902305
0.000898917
0.000895845
0.000893653
0.000893064
0.000891593
0.000890427
0.000889943
0.000889368
0.000889005
0.000888738
0.00088854
0.000888389
0.000888271
0.000888176
0.000888099
0.000888035
0.000887982
0.000887936
0.000887898
0.000887865
0.000887837
0.000887814
0.000887795
0.000887779
0.000887767
0.000887757
0.000887751
0.000887747
0.000885754
0.000885751
0.000885749
0.000885746
0.000885742
0.000885738
0.000885733
0.000885728
0.000885724
0.000885721
0.000885719
0.000885722
0.00088573
0.000885747
0.000885776
0.000885824
0.000885898
0.000886011
0.000886182
0.000886439
0.000886834
0.000887389
0.000887595
0.000888703
0.000890634
0.00089058
0.00089647
0.000904356
0.000917696
0.00092515
0.00091728
0.00092609
0.000911542
0.000901344
0.000895445
0.000893443
0.000891278
0.000889475
0.000888864
0.000888052
0.000887548
0.000887183
0.000886922
0.000886728
0.000886578
0.000886461
0.000886367
0.000886291
0.000886228
0.000886175
0.000886131
0.000886094
0.000886063
0.000886037
0.000886015
0.000885998
0.000885984
0.000885974
0.000885967
0.000885962
0.000884029
0.000884026
0.000884025
0.000884022
0.000884019
0.000884016
0.000884013
0.000884009
0.000884007
0.000884007
0.00088401
0.000884018
0.000884034
0.000884061
0.000884104
0.000884171
0.000884273
0.000884425
0.000884654
0.000884993
0.000885521
0.000886169
0.000886516
0.000888054
0.000890445
0.000892305
0.000904443
0.000927691
0.000447678
0.00027631
0.000268476
0.000401919
0.000860085
0.000916053
0.000900363
0.000894425
0.000891635
0.000888721
0.000887977
0.00088687
0.000886187
0.000885704
0.000885367
0.000885121
0.000884936
0.000884794
0.000884682
0.000884592
0.000884518
0.000884458
0.000884408
0.000884366
0.000884331
0.000884302
0.000884278
0.000884259
0.000884244
0.000884233
0.000884226
0.00088422
0.00088235
0.000882347
0.000882345
0.000882344
0.000882342
0.00088234
0.000882338
0.000882337
0.000882338
0.000882342
0.00088235
0.000882365
0.000882389
0.000882429
0.000882489
0.000882579
0.000882714
0.000882914
0.00088321
0.000883648
0.000884328
0.00088506
0.000885668
0.00088784
0.000890599
0.000897044
0.000920594
0.000558142
0.000236082
0.000108763
0.000107875
0.000169577
0.000403646
0.000948913
0.000910429
0.000895752
0.000892721
0.000888122
0.000887266
0.00088581
0.000884917
0.000884293
0.00088387
0.000883566
0.000883341
0.000883171
0.000883039
0.000882934
0.00088285
0.000882782
0.000882725
0.000882678
0.00088264
0.000882608
0.000882582
0.000882561
0.000882545
0.000882533
0.000882525
0.000882519
0.000880713
0.00088071
0.000880709
0.000880708
0.000880708
0.000880707
0.000880708
0.000880709
0.000880714
0.000880722
0.000880736
0.000880759
0.000880794
0.000880848
0.000880928
0.000881045
0.000881219
0.000881475
0.000881852
0.000882406
0.000883255
0.000884083
0.000885118
0.000888008
0.000891382
0.000904547
0.000941894
0.000513122
0.000243417
0.000116425
0.000313838
0.000827131
0.00092665
0.000896913
0.000894464
0.000887604
0.000886698
0.000884851
0.000883722
0.000882942
0.000882423
0.000882056
0.000881789
0.000881589
0.000881436
0.000881316
0.000881221
0.000881144
0.000881081
0.00088103
0.000880988
0.000880953
0.000880925
0.000880902
0.000880885
0.000880872
0.000880864
0.000880857
0.000879117
0.000879115
0.000879115
0.000879115
0.000879115
0.000879117
0.000879119
0.000879124
0.000879133
0.000879146
0.000879167
0.000879199
0.000879246
0.000879316
0.000879419
0.000879568
0.000879787
0.000880108
0.000880579
0.000881271
0.000882313
0.000883307
0.000885004
0.000888563
0.000893095
0.0009121
0.000954028
0.000934858
0.0057865
0.000875044
8.77162e-05
0.000406753
0.000861086
0.000946539
0.00089752
0.000896709
0.000887137
0.000886213
0.000883976
0.000882589
0.000881644
0.000881023
0.000880589
0.000880277
0.000880046
0.000879872
0.000879736
0.00087963
0.000879544
0.000879475
0.000879419
0.000879373
0.000879335
0.000879305
0.000879281
0.000879262
0.000879249
0.00087924
0.000879233
0.000877561
0.000877559
0.000877559
0.00087756
0.000877563
0.000877566
0.000877571
0.00087758
0.000877593
0.000877612
0.00087764
0.000877682
0.000877743
0.000877832
0.000877959
0.000878144
0.000878414
0.000878809
0.000879389
0.000880246
0.000881524
0.000882858
0.000885623
0.000889886
0.000896598
0.000919198
0.000961252
0.00117412
0.0204089
0.0183883
0.0110596
0.000254809
0.000801936
0.00106815
0.0009667
0.00089863
0.000899206
0.000886753
0.000885755
0.000883158
0.000881497
0.000880386
0.000879661
0.000879158
0.000878801
0.000878539
0.000878342
0.000878191
0.000878074
0.00087798
0.000877905
0.000877843
0.000877794
0.000877754
0.000877721
0.000877696
0.000877676
0.000877661
0.000877652
0.000877645
0.000876043
0.000876041
0.000876042
0.000876044
0.000876048
0.000876053
0.000876062
0.000876074
0.000876091
0.000876117
0.000876154
0.000876207
0.000876282
0.000876391
0.000876546
0.00087677
0.000877097
0.000877575
0.000878281
0.000879335
0.000880919
0.000882917
0.000887482
0.000892992
0.000905725
0.00093724
0.00102646
0.00284947
0.0299958
0.0582979
0.00142982
0.000361508
0.0009817
0.00110537
0.000984771
0.000901496
0.000901653
0.0008865
0.000885281
0.000882364
0.000880423
0.000879158
0.000878327
0.000877758
0.000877356
0.000877063
0.000876846
0.00087668
0.000876551
0.000876449
0.000876367
0.000876302
0.000876249
0.000876206
0.000876172
0.000876144
0.000876123
0.000876108
0.000876099
0.000876091
0.000874559
0.000874558
0.00087456
0.000874563
0.000874569
0.000874577
0.000874588
0.000874604
0.000874627
0.000874659
0.000874705
0.000874769
0.00087486
0.00087499
0.000875174
0.00087544
0.000875828
0.000876398
0.000877246
0.000878531
0.000880517
0.000883656
0.000891136
0.000899364
0.000929231
0.00100394
0.00321831
0.0213666
0.0430755
0.0105413
0.000249878
0.000548663
0.00108016
0.00112978
0.000997732
0.000906778
0.000903792
0.000886434
0.000884771
0.000881565
0.000879349
0.000877946
0.000877015
0.000876383
0.000875938
0.000875617
0.000875379
0.000875198
0.000875059
0.000874949
0.000874862
0.000874792
0.000874736
0.000874691
0.000874655
0.000874626
0.000874604
0.000874588
0.000874578
0.00087457
0.00087311
0.000873109
0.000873112
0.000873117
0.000873124
0.000873134
0.000873149
0.000873169
0.000873197
0.000873237
0.000873291
0.000873367
0.000873474
0.000873625
0.000873839
0.000874148
0.0008746
0.00087527
0.000876271
0.000877813
0.000880315
0.000885174
0.000896997
0.000910982
0.000999073
0.00157638
0.00882379
0.034163
0.00816321
0.00134637
0.000118946
0.00079549
0.00116797
0.00114306
0.0010041
0.000914311
0.000905567
0.0008866
0.000884218
0.000880731
0.000878263
0.000876742
0.000875717
0.000875028
0.000874544
0.000874196
0.000873939
0.000873745
0.000873596
0.00087348
0.000873388
0.000873314
0.000873255
0.000873207
0.000873169
0.000873139
0.000873116
0.0008731
0.000873089
0.000873081
0.000871693
0.000871692
0.000871696
0.000871702
0.000871711
0.000871724
0.000871742
0.000871767
0.0008718
0.000871846
0.00087191
0.000871998
0.00087212
0.000872291
0.000872536
0.00087289
0.000873409
0.000874179
0.000875334
0.000877151
0.000880286
0.000887455
0.000905228
0.000931449
0.00119799
0.00292729
0.0142263
0.0143869
0.00131313
0.000357427
0.000197165
0.0010327
0.00123686
0.00114903
0.0010052
0.000923358
0.000907308
0.000887021
0.000883616
0.000879839
0.000877158
0.000875534
0.000874426
0.000873689
0.00087317
0.000872799
0.000872525
0.000872319
0.000872162
0.000872039
0.000871942
0.000871864
0.000871803
0.000871753
0.000871713
0.000871682
0.000871659
0.000871641
0.000871631
0.000871622
0.000870307
0.000870306
0.000870311
0.000870318
0.00087033
0.000870345
0.000870366
0.000870395
0.000870434
0.000870487
0.000870559
0.000870658
0.000870795
0.000870987
0.000871262
0.000871659
0.000872242
0.00087311
0.000874414
0.00087651
0.000880387
0.000890358
0.0009156
0.000964531
0.00151187
0.00404348
0.0180356
0.00885567
0.000461164
0.000235613
0.000458554
0.00122262
0.00128951
0.00115098
0.00100906
0.00093311
0.000909238
0.000887685
0.000882958
0.000878876
0.00087603
0.00087432
0.000873141
0.000872363
0.000871814
0.000871422
0.000871135
0.000870919
0.000870753
0.000870625
0.000870524
0.000870443
0.000870379
0.000870327
0.000870287
0.000870255
0.00087023
0.000870212
0.000870201
0.000870192
0.000868949
0.000868949
0.000868955
0.000868964
0.000868977
0.000868994
0.000869019
0.000869052
0.000869096
0.000869155
0.000869234
0.000869344