/*--------------------------------*- C++ -*----------------------------------*\
  =========                 |
  \\      /  F ield         | OpenFOAM: The Open Source CFD Toolbox
   \\    /   O peration     | Website:  https://openfoam.org
    \\  /    A nd           | Version:  12
     \\/     M anipulation  |
\*---------------------------------------------------------------------------*/
FoamFile
{
    format      ascii;
    class       volScalarField;
    location    "340";
    object      omega;
}
// * * * * * * * * * * * * * * * * * * * * * * * * * * * * * * * * * * * * * //

dimensions      [0 0 -1 0 0 0 0];

internalField   nonuniform List<scalar> 
16227
(
9.34702
9.34704
9.34704
9.34707
9.34706
9.3471
9.34709
9.34708
9.34707
9.34709
9.34713
9.34715
9.3472
9.3472
9.3472
9.3472
9.3472
9.3472
9.3472
9.3472
9.3472
9.3472
9.3472
9.3472
9.3472
9.3472
9.3472
9.34722
9.34722
9.3472
9.34721
9.3472
9.3472
9.3472
9.34721
9.3472
9.3472
9.3472
9.3472
9.3472
9.3472
9.3472
9.3472
9.3472
9.3472
9.3472
9.3472
9.34719
9.34717
9.34717
9.34717
9.34716
9.3471
9.3471
9.34706
9.34705
9.34707
9.34705
9.34703
9.34702
8.71805
8.71807
8.71807
8.7181
8.7181
8.71814
8.71813
8.7181
8.71811
8.71812
8.71817
8.71819
8.71833
8.71839
8.7184
8.7184
8.7184
8.7184
8.7184
8.7184
8.71841
8.71843
8.71843
8.71843
8.71843
8.71843
8.71843
8.71843
8.71841
8.71836
8.71841
8.71843
8.71843
8.71844
8.71843
8.71842
8.71841
8.71841
8.71841
8.71841
8.71841
8.71841
8.71841
8.7184
8.7184
8.71838
8.71838
8.71838
8.71838
8.71837
8.71834
8.71829
8.71818
8.71816
8.71813
8.71811
8.71814
8.71806
8.71808
8.71805
8.16618
8.1662
8.1662
8.16622
8.16621
8.1663
8.16625
8.16624
8.16625
8.16626
8.1663
8.16632
8.16656
8.16662
8.16663
8.16664
8.16663
8.16663
8.16665
8.1666
8.16664
8.16665
8.16665
8.16665
8.16665
8.16666
8.16666
8.16667
8.16666
8.16659
8.16665
8.16667
8.16668
8.16668
8.16669
8.16669
8.1667
8.16669
8.16668
8.16668
8.16668
8.16669
8.16668
8.16666
8.16667
8.16667
8.16665
8.16666
8.16664
8.16662
8.16658
8.16639
8.16632
8.1663
8.16628
8.16628
8.16631
8.16621
8.16623
8.1662
7.67825
7.67827
7.67828
7.67829
7.67829
7.67836
7.67836
7.67832
7.67832
7.67832
7.67836
7.67842
7.67867
7.67874
7.67875
7.67877
7.67877
7.67879
7.67873
7.67861
7.67872
7.67876
7.67876
7.67877
7.67879
7.67879
7.6788
7.6788
7.67879
7.67872
7.6788
7.67883
7.67884
7.67885
7.67886
7.67888
7.67889
7.6789
7.67891
7.67891
7.67892
7.67891
7.67891
7.67891
7.67891
7.6789
7.6789
7.67889
7.67889
7.67886
7.67874
7.67855
7.67845
7.67847
7.67847
7.67848
7.67845
7.67838
7.67838
7.67836
7.24394
7.24396
7.24396
7.24398
7.24398
7.24403
7.24405
7.24399
7.244
7.24399
7.24403
7.24408
7.24431
7.24444
7.24445
7.24445
7.24445
7.24443
7.24422
7.24416
7.24435
7.24443
7.24443
7.24444
7.24444
7.24445
7.24446
7.24448
7.24448
7.24441
7.24452
7.24457
7.2446
7.24462
7.24464
7.24467
7.2447
7.24473
7.24475
7.24476
7.24478
7.2448
7.24479
7.2448
7.2448
7.2448
7.2448
7.2448
7.24479
7.2447
7.24446
7.24435
7.24427
7.2443
7.24431
7.24435
7.24429
7.24422
7.24422
7.2442
6.85499
6.85501
6.855
6.85501
6.85501
6.85505
6.85508
6.85502
6.855
6.85498
6.85498
6.85501
6.85512
6.85539
6.85544
6.85545
6.85544
6.85534
6.85512
6.85508
6.8553
6.85537
6.85538
6.85538
6.8554
6.85543
6.85545
6.85547
6.85548
6.85543
6.85556
6.85563
6.85568
6.85574
6.85579
6.85584
6.85589
6.85593
6.85597
6.856
6.85603
6.85605
6.85607
6.85609
6.8561
6.8561
6.8561
6.85611
6.85609
6.85595
6.85571
6.85559
6.85554
6.85559
6.85562
6.85561
6.85555
6.85548
6.85548
6.85547
6.50474
6.50475
6.50474
6.50475
6.50474
6.50477
6.5048
6.50476
6.50471
6.50469
6.50466
6.50464
6.50473
6.50497
6.50509
6.5051
6.50506
6.50478
6.50466
6.50467
6.5049
6.50496
6.50497
6.50498
6.50501
6.50503
6.50507
6.50512
6.50515
6.50511
6.50527
6.50537
6.50545
6.50553
6.50562
6.5057
6.50577
6.50585
6.50591
6.50598
6.50602
6.50607
6.50611
6.50613
6.50616
6.50617
6.50617
6.50618
6.5061
6.50583
6.50569
6.5056
6.50559
6.50565
6.50565
6.50564
6.50559
6.50552
6.50553
6.50551
6.18777
6.18777
6.18776
6.18777
6.18774
6.18776
6.18778
6.18775
6.18769
6.18763
6.18758
6.18752
6.18755
6.18765
6.18792
6.18799
6.18791
6.18757
6.18747
6.18748
6.18771
6.18778
6.18778
6.1878
6.18782
6.18786
6.18792
6.18798
6.18803
6.18802
6.18822
6.18836
6.18849
6.1886
6.18872
6.18885
6.18896
6.18907
6.18917
6.18926
6.18934
6.1894
6.18946
6.1895
6.18954
6.18956
6.18958
6.18957
6.18943
6.18917
6.18904
6.18899
6.18902
6.18905
6.18903
6.18902
6.18897
6.18891
6.18892
6.1889
5.8996
5.8996
5.89959
5.89958
5.89956
5.89956
5.89956
5.89952
5.89948
5.89939
5.89931
5.89922
5.89921
5.89926
5.89957
5.89964
5.89947
5.89915
5.89906
5.89905
5.89928
5.89934
5.89934
5.89935
5.89939
5.89944
5.89951
5.89961
5.89969
5.89971
5.89994
5.90013
5.9003
5.90047
5.90064
5.9008
5.90096
5.90112
5.90125
5.90138
5.90149
5.90159
5.90166
5.90173
5.90178
5.90183
5.90184
5.90177
5.90149
5.90136
5.90126
5.90128
5.90128
5.9013
5.90129
5.90127
5.90123
5.90117
5.90116
5.90116
5.63654
5.63654
5.63652
5.63651
5.63647
5.63646
5.63645
5.63639
5.63633
5.63626
5.63614
5.63602
5.63598
5.63603
5.63625
5.63631
5.63597
5.63576
5.63568
5.63568
5.63589
5.63594
5.63594
5.63596
5.636
5.63607
5.63617
5.63628
5.6364
5.63646
5.63675
5.63698
5.6372
5.63743
5.63765
5.63787
5.63808
5.63829
5.63848
5.63864
5.63878
5.63891
5.63903
5.63911
5.63918
5.63923
5.63925
5.63915
5.63887
5.63874
5.63871
5.6387
5.6387
5.63871
5.6387
5.63868
5.63863
5.63859
5.63858
5.63857
5.39549
5.39548
5.39546
5.39543
5.3954
5.39537
5.39534
5.39525
5.39517
5.39508
5.39497
5.3948
5.39469
5.39467
5.39471
5.39487
5.39455
5.39437
5.39428
5.39425
5.39439
5.39448
5.39449
5.3945
5.39455
5.39464
5.39475
5.3949
5.39506
5.39517
5.3955
5.3958
5.39608
5.39637
5.39666
5.39695
5.39722
5.39748
5.39772
5.39793
5.39812
5.39828
5.39842
5.39853
5.39862
5.39867
5.39863
5.39848
5.3983
5.3982
5.39818
5.39817
5.39816
5.39818
5.39816
5.39814
5.3981
5.39804
5.39804
5.39803
5.17382
5.17381
5.17378
5.17375
5.1737
5.17366
5.1736
5.17351
5.1734
5.17328
5.17315
5.17298
5.1728
5.17271
5.17269
5.17279
5.17252
5.17233
5.17219
5.17213
5.17212
5.1723
5.17234
5.17236
5.17241
5.17252
5.17266
5.17285
5.17305
5.17321
5.17361
5.17397
5.17433
5.17469
5.17505
5.17541
5.17574
5.17607
5.17636
5.17663
5.17687
5.17707
5.17724
5.17738
5.17748
5.17751
5.17737
5.1773
5.17719
5.1771
5.17708
5.17707
5.17706
5.17707
5.17705
5.17703
5.17698
5.17693
5.17692
5.17691
4.96932
4.96931
4.96928
4.96923
4.96917
4.96911
4.96903
4.96892
4.96879
4.96864
4.96848
4.96828
4.96809
4.96789
4.96776
4.96767
4.96757
4.96741
4.96724
4.96714
4.96706
4.96726
4.9673
4.96732
4.96738
4.9675
4.96767
4.9679
4.96815
4.96837
4.96884
4.96927
4.96971
4.97015
4.9706
4.97104
4.97145
4.97184
4.97221
4.97253
4.97282
4.97307
4.97327
4.97344
4.97354
4.97355
4.97343
4.9734
4.97328
4.9732
4.97318
4.97317
4.97317
4.97316
4.97314
4.97311
4.97306
4.97301
4.973
4.97299
4.7801
4.78009
4.78005
4.77999
4.77992
4.77984
4.77973
4.7796
4.77944
4.77927
4.77907
4.77884
4.77861
4.77838
4.77815
4.77801
4.77791
4.77772
4.77753
4.77738
4.77727
4.77745
4.77747
4.77748
4.77755
4.77768
4.77789
4.77815
4.77846
4.77875
4.77928
4.77981
4.78034
4.78087
4.78141
4.78194
4.78245
4.78292
4.78335
4.78374
4.78408
4.78437
4.7846
4.78478
4.78484
4.78481
4.7848
4.78478
4.78468
4.78462
4.7846
4.78458
4.78456
4.78455
4.78452
4.78449
4.78444
4.78439
4.78438
4.78436
4.60453
4.60452
4.60447
4.6044
4.60431
4.60421
4.60409
4.60393
4.60375
4.60354
4.60331
4.60304
4.60277
4.60249
4.60223
4.60203
4.60188
4.60165
4.6014
4.60121
4.60107
4.6012
4.60121
4.60121
4.60128
4.60143
4.60167
4.60198
4.60235
4.60271
4.60333
4.60395
4.60458
4.60522
4.60586
4.60649
4.60709
4.60766
4.60816
4.60862
4.60901
4.60935
4.60962
4.60978
4.60976
4.60982
4.60984
4.60983
4.60976
4.6097
4.60968
4.60966
4.60963
4.60961
4.60957
4.60954
4.60948
4.60943
4.60941
4.60939
4.44121
4.44118
4.44113
4.44105
4.44094
4.44083
4.44069
4.4405
4.44029
4.44004
4.43977
4.43947
4.43916
4.43883
4.43852
4.43827
4.43806
4.43778
4.43747
4.43723
4.43705
4.43708
4.43711
4.4371
4.43717
4.43733
4.4376
4.43796
4.4384
4.43884
4.43955
4.44028
4.44103
4.44179
4.44254
4.44329
4.44399
4.44465
4.44524
4.44577
4.44622
4.44661
4.4469
4.44705
4.44706
4.44713
4.44717
4.44712
4.44707
4.44704
4.44702
4.44699
4.44695
4.44692
4.44688
4.44683
4.44677
4.44672
4.4467
4.44667
4.28891
4.28888
4.28882
4.28872
4.28861
4.28847
4.2883
4.28809
4.28784
4.28757
4.28726
4.2869
4.28655
4.28617
4.2858
4.28549
4.28523
4.28487
4.28452
4.28419
4.28395
4.28381
4.2839
4.28393
4.28399
4.28417
4.28446
4.28488
4.28539
4.28592
4.28674
4.28759
4.28847
4.28936
4.29025
4.29111
4.29194
4.2927
4.29338
4.29398
4.2945
4.29491
4.29517
4.2953
4.29541
4.29551
4.29556
4.29551
4.29545
4.29543
4.2954
4.29535
4.2953
4.29526
4.29521
4.29515
4.29508
4.29502
4.295
4.29497
4.14657
4.14653
4.14647
4.14637
4.14623
4.14608
4.14588
4.14563
4.14536
4.14505
4.14469
4.1443
4.14388
4.14346
4.14302
4.14264
4.14231
4.1419
4.14147
4.14108
4.14076
4.14052
4.1406
4.14062
4.14067
4.14085
4.14118
4.14165
4.14224
4.14288
4.14382
4.14481
4.14583
4.14687
4.14791
4.14892
4.14987
4.15074
4.15152
4.1522
4.15277
4.15319
4.15338
4.15359
4.15376
4.15388
4.15392
4.15387
4.15382
4.15379
4.15374
4.15368
4.15362
4.15356
4.1535
4.15342
4.15335
4.15329
4.15326
4.15323
4.01327
4.01323
4.01315
4.01304
4.01289
4.01271
4.01249
4.01222
4.01191
4.01155
4.01116
4.01071
4.01024
4.00976
4.00925
4.0088
4.00839
4.0079
4.00741
4.00693
4.00654
4.00624
4.00621
4.00622
4.00627
4.00646
4.00682
4.00735
4.00803
4.00879
4.00986
4.011
4.01219
4.0134
4.01461
4.01578
4.01686
4.01785
4.01873
4.01947
4.0201
4.02053
4.02076
4.021
4.02119
4.0213
4.0213
4.02126
4.02122
4.02118
4.02112
4.02104
4.02096
4.02089
4.0208
4.02072
4.02063
4.02057
4.02053
4.0205
3.88818
3.88813
3.88805
3.88792
3.88775
3.88756
3.88732
3.88701
3.88667
3.88627
3.88583
3.88534
3.88481
3.88426
3.88369
3.88314
3.88263
3.88208
3.8815
3.88095
3.88044
3.88006
3.87983
3.87989
3.87996
3.88015
3.88054
3.88114
3.88192
3.88281
3.88404
3.88537
3.88675
3.88815
3.88954
3.89088
3.89212
3.89323
3.89418
3.89497
3.8956
3.89605
3.89639
3.89667
3.89688
3.89696
3.89694
3.8969
3.89686
3.89679
3.8967
3.8966
3.8965
3.89641
3.89631
3.89621
3.89611
3.89604
3.896
3.89596
3.77059
3.77053
3.77044
3.7703
3.77012
3.7699
3.76963
3.7693
3.76892
3.76848
3.768
3.76745
3.76686
3.76624
3.76558
3.76492
3.7643
3.76369
3.76303
3.76239
3.76179
3.76129
3.76096
3.76098
3.76102
3.76121
3.76163
3.76229
3.76318
3.76423
3.76563
3.76717
3.76877
3.7704
3.77201
3.77353
3.77493
3.77615
3.77719
3.77805
3.77866
3.77917
3.77958
3.77989
3.78007
3.7801
3.78008
3.78004
3.77998
3.77989
3.77977
3.77964
3.77952
3.7794
3.77928
3.77917
3.77906
3.77897
3.77892
3.77888
3.65984
3.65978
3.65968
3.65954
3.65933
3.65909
3.6588
3.65844
3.65802
3.65755
3.65701
3.65641
3.65577
3.65507
3.65433
3.65358
3.65285
3.65215
3.65139
3.65063
3.64992
3.64932
3.64888
3.64879
3.6488
3.64898
3.64943
3.65017
3.65119
3.65241
3.65403
3.65581
3.65767
3.65956
3.6614
3.66314
3.66468
3.66601
3.66715
3.66807
3.66873
3.66928
3.66971
3.67
3.67014
3.67015
3.6701
3.67004
3.66995
3.66982
3.66967
3.66951
3.66936
3.66921
3.66907
3.66894
3.66882
3.66873
3.66867
3.66862
3.55538
3.55532
3.55521
3.55505
3.55483
3.55457
3.55426
3.55387
3.55342
3.5529
3.55232
3.55166
3.55096
3.55019
3.54937
3.54852
3.54768
3.54686
3.54599
3.54511
3.54428
3.54355
3.543
3.54273
3.54281
3.54295
3.54343
3.54426
3.54543
3.54685
3.54871
3.55079
3.55295
3.55513
3.55726
3.55925
3.56085
3.56228
3.56344
3.56441
3.56517
3.56576
3.56617
3.56641
3.56648
3.56648
3.56642
3.56632
3.56619
3.56602
3.56584
3.56564
3.56545
3.56528
3.56511
3.56496
3.56483
3.56472
3.56466
3.5646
3.4567
3.45663
3.45651
3.45634
3.45612
3.45583
3.45549
3.45507
3.45459
3.45404
3.45341
3.4527
3.45193
3.45109
3.45019
3.44923
3.44825
3.44728
3.44632
3.44534
3.44437
3.4435
3.44284
3.44251
3.49063
3.49121
3.49169
3.49255
3.4938
3.49532
3.49732
3.49957
3.50191
3.50428
3.50659
3.50874
3.46403
3.46454
3.46574
3.46675
3.46754
3.46811
3.46847
3.46862
3.46865
3.46861
3.46852
3.46838
3.46819
3.46797
3.46774
3.46751
3.46728
3.46708
3.46689
3.46672
3.46657
3.46645
3.46637
3.46631
3.36334
3.36326
3.36314
3.36296
3.36272
3.36242
3.36206
3.36161
3.36109
3.3605
3.35983
3.35907
3.35823
3.35733
3.35634
3.35528
3.35418
3.35305
3.35195
3.35086
3.34976
3.34876
3.34802
3.39341
3.3913
3.39197
3.39244
3.39336
3.39476
3.39653
3.39884
3.40146
3.40422
3.40701
3.40972
3.41212
3.41643
3.37334
3.37367
3.37463
3.37537
3.37588
3.37615
3.37623
3.3762
3.37611
3.37595
3.37574
3.37549
3.37522
3.37494
3.37466
3.3744
3.37416
3.37394
3.37374
3.37357
3.37344
3.37336
3.37329
3.27489
3.2748
3.27468
3.27449
3.27424
3.27393
3.27354
3.27307
3.27252
3.27189
3.27118
3.27037
3.26948
3.2685
3.26744
3.26629
3.26506
3.2638
3.26255
3.26131
3.26007
3.25894
3.25797
3.2993
3.29742
3.32058
3.32128
3.32226
3.32378
3.32574
3.32829
3.33121
3.33432
3.33746
3.34053
3.32187
3.32537
3.2872
3.28681
3.28763
3.28826
3.28864
3.28879
3.28878
3.28869
3.28852
3.28828
3.28799
3.28767
3.28734
3.287
3.28668
3.28637
3.2861
3.28585
3.28563
3.28544
3.28529
3.2852
3.28513
3.19099
3.1909
3.19077
3.19057
3.19031
3.18998
3.18958
3.18909
3.18852
3.18785
3.1871
3.18624
3.1853
3.18426
3.18312
3.18188
3.18055
3.17915
3.17772
3.17631
3.17493
3.17373
3.17254
3.21004
3.20858
3.22901
3.2303
3.23139
3.23307
3.23533
3.23816
3.24149
3.24509
3.24875
3.25224
3.23745
3.23958
3.20588
3.20485
3.2054
3.20584
3.20603
3.20605
3.20595
3.20575
3.20548
3.20514
3.20476
3.20437
3.20396
3.20357
3.20319
3.20284
3.20253
3.20224
3.202
3.20179
3.20163
3.20153
3.20145
3.1113
3.11121
3.11108
3.11088
3.1106
3.11026
3.10984
3.10934
3.10874
3.10805
3.10726
3.10637
3.10537
3.10427
3.10306
3.10174
3.10031
3.09879
3.09721
3.09561
3.09408
3.09279
3.09146
3.12549
3.12438
3.1421
3.14418
3.1457
3.14795
3.15083
3.15425
3.15806
3.16203
3.16594
3.16971
3.15807
3.15898
3.12913
3.12747
3.1276
3.12777
3.12776
3.12762
3.12738
3.12704
3.12664
3.12619
3.12571
3.12523
3.12475
3.12429
3.12386
3.12346
3.12311
3.12279
3.12252
3.12229
3.12212
3.12201
3.12192
3.03553
3.03543
3.0353
3.03509
3.03481
3.03446
3.03403
3.03351
3.03289
3.03218
3.03137
3.03044
3.0294
3.02825
3.02698
3.02558
3.02407
3.02245
3.02074
3.019
3.01729
3.0159
3.01447
3.04542
3.04482
3.0599
3.06308
3.06594
3.06982
3.0744
3.07888
3.08284
3.08636
3.08963
3.09295
3.08404
3.08355
3.05668
3.05439
3.05396
3.05381
3.05355
3.0532
3.05275
3.05224
3.05169
3.05111
3.05053
3.04995
3.04939
3.04887
3.04838
3.04793
3.04753
3.04719
3.04689
3.04664
3.04645
3.04633
3.04624
2.9634
2.9633
2.96316
2.96295
2.96267
2.96231
2.96187
2.96134
2.96071
2.95998
2.95915
2.9582
2.95713
2.95594
2.95461
2.95316
2.95157
2.94987
2.94807
2.94622
2.94441
2.9429
2.9414
2.96967
2.96979
2.98235
2.98848
2.99458
3.00399
3.01448
3.0215
3.02324
3.02237
3.02194
3.02262
3.01535
3.01324
2.98833
2.98545
2.98432
2.98372
2.98311
2.98246
2.98177
2.98106
2.98034
2.97963
2.97892
2.97825
2.97761
2.97701
2.97647
2.97597
2.97553
2.97515
2.97483
2.97456
2.97436
2.97422
2.97413
2.89466
2.89456
2.89442
2.89421
2.89392
2.89357
2.89312
2.89258
2.89195
2.89121
2.89036
2.88939
2.8883
2.88708
2.88572
2.88423
2.88259
2.88083
2.87897
2.87706
2.87522
2.8736
2.87212
2.89813
2.8991
2.91091
2.92301
2.93952
2.97079
3.01061
3.02683
3.00936
2.98408
2.96801
2.96056
2.95203
2.94812
2.92387
2.92041
2.91839
2.91719
2.91613
2.91513
2.91417
2.91324
2.91233
2.91147
2.91065
2.90987
2.90915
2.90848
2.90787
2.90732
2.90685
2.90643
2.90609
2.9058
2.90558
2.90544
2.90533
2.82909
2.82899
2.82885
2.82864
2.82835
2.82799
2.82755
2.82701
2.82637
2.82563
2.82478
2.82381
2.82271
2.82147
2.8201
2.81857
2.81691
2.81512
2.81324
2.81132
2.80952
2.80783
2.80664
2.83098
2.83241
2.84759
2.8725
2.92407
3.06939
3.35271
3.41962
3.20177
3.01855
2.94033
2.91031
2.89361
2.88815
2.86312
2.85897
2.85587
2.85395
2.85234
2.85095
2.84968
2.84851
2.84742
2.8464
2.84545
2.84457
2.84376
2.84303
2.84236
2.84177
2.84125
2.84081
2.84043
2.84013
2.8399
2.83974
2.83963
2.76648
2.76637
2.76623
2.76603
2.76575
2.76539
2.76495
2.76441
2.76378
2.76305
2.7622
2.76123
2.76014
2.7589
2.75753
2.756
2.75434
2.75256
2.75069
2.74881
2.74713
2.74539
2.74482
2.76829
2.77018
2.79465
2.84365
3.01643
3.75642
8.06441
8.18899
4.78812
3.29739
2.96232
2.87602
2.83946
2.83332
2.80557
2.80075
2.79642
2.79367
2.79147
2.78965
2.78806
2.78664
2.78535
2.78418
2.78311
2.78213
2.78124
2.78044
2.77972
2.77908
2.77853
2.77806
2.77766
2.77734
2.77709
2.77693
2.77682
2.70663
2.70653
2.70639
2.70619
2.70591
2.70556
2.70513
2.70461
2.70399
2.70326
2.70243
2.70148
2.7004
2.69919
2.69783
2.69633
2.6947
2.69296
2.69116
2.68939
2.68787
2.68616
2.6866
2.70964
2.7128
2.75122
2.83553
3.38317
11.404
16.3942
4.09029
3.04651
2.85931
2.78787
2.78278
2.7507
2.7453
2.73969
2.73606
2.73323
2.73097
2.72905
2.72739
2.72591
2.72459
2.72341
2.72233
2.72137
2.7205
2.71974
2.71906
2.71848
2.71798
2.71757
2.71723
2.71698
2.71682
2.7167
2.64938
2.64927
2.64914
2.64894
2.64868
2.64834
2.64792
2.64741
2.64681
2.6461
2.64529
2.64437
2.64332
2.64214
2.64083
2.63938
2.63781
2.63616
2.63448
2.63288
2.6316
2.63011
2.63205
2.65474
2.66053
2.71033
2.83224
4.48042
41.5348
576.833
65.8814
4.69133
3.13693
2.85224
2.73753
2.73565
2.69813
2.69227
2.68543
2.6809
2.67745
2.67476
2.67252
2.67062
2.66897
2.66751
2.66621
2.66505
2.66401
2.66309
2.66228
2.66157
2.66096
2.66044
2.66
2.65965
2.65939
2.65922
2.6591
2.59455
2.59445
2.59432
2.59414
2.59388
2.59355
2.59315
2.59266
2.59208
2.5914
2.59063
2.58974
2.58874
2.58762
2.58636
2.58499
2.58352
2.582
2.5805
2.57914
2.5782
2.57738
2.58168
2.6043
2.61478
2.67066
2.85093
5.65278
15.9741
11.3969
70.2369
23.9367
4.70361
3.17713
2.84504
2.69
2.69065
2.64755
2.6412
2.63329
2.6279
2.62387
2.62077
2.61825
2.61613
2.61431
2.61272
2.61133
2.61009
2.60899
2.60803
2.60717
2.60643
2.60579
2.60525
2.6048
2.60444
2.60417
2.60399
2.60387
2.54201
2.54191
2.54179
2.54161
2.54137
2.54105
2.54067
2.54021
2.53965
2.53902
2.53828
2.53744
2.5365
2.53544
2.53427
2.533
2.53166
2.53029
2.52902
2.52799
2.52758
2.52817
2.53637
2.56019
2.58329
2.6583
3.13202
9.28233
25.6534
13.4615
116.637
14.8074
4.40891
3.16365
2.83113
2.64739
2.64652
2.59873
2.59171
2.58295
2.57678
2.57227
2.56881
2.56604
2.56373
2.56178
2.56008
2.5586
2.5573
2.55616
2.55514
2.55426
2.55349
2.55283
2.55227
2.55181
2.55144
2.55116
2.55098
2.55085
2.49161
2.49151
2.4914
2.49123
2.491
2.49071
2.49035
2.48991
2.48939
2.48879
2.48811
2.48732
2.48645
2.48547
2.4844
2.48324
2.48204
2.48086
2.47988
2.47932
2.47974
2.48279
2.49717
2.52533
2.58238
2.74074
6.34012
19.4169
14.6459
30.6831
104.479
9.31041
4.08139
3.12064
2.80396
2.61054
2.60235
2.55155
2.54353
2.53415
2.52733
2.52245
2.51871
2.51573
2.51328
2.51122
2.50944
2.50789
2.50654
2.50536
2.50431
2.5034
2.50261
2.50194
2.50137
2.50089
2.50052
2.50023
2.50005
2.49991
2.44323
2.44313
2.44302
2.44287
2.44265
2.44238
2.44205
2.44164
2.44116
2.44061
2.43998
2.43926
2.43846
2.43756
2.43658
2.43552
2.43449
2.43359
2.43299
2.43301
2.43453
2.4412
2.46431
2.50225
2.63642
3.29984
11.5838
11.2143
22.9126
52.0946
57.2625
6.5439
3.78679
3.05993
2.76082
2.57809
2.55792
2.50599
2.49655
2.48668
2.47937
2.47424
2.4703
2.46719
2.46464
2.4625
2.46066
2.45907
2.45769
2.45647
2.45541
2.45448
2.45367
2.45299
2.45241
2.45193
2.45155
2.45126
2.45108
2.45094
2.39674
2.39664
2.39655
2.3964
2.39621
2.39596
2.39565
2.39528
2.39484
2.39434
2.39376
2.39311
2.39237
2.39154
2.39066
2.38979
2.389
2.38841
2.3882
2.38884
2.3917
2.40303
2.43692
2.49182
2.77977
4.74645
12.2563
16.671
33.5568
45.7388
25.6277
5.18057
3.55976
2.99116
2.70672
2.54849
2.51386
2.46183
2.45061
2.44035
2.43275
2.42749
2.42343
2.42029
2.4177
2.41551
2.41364
2.41203
2.41062
2.40939
2.40832
2.40738
2.40657
2.40588
2.40529
2.40481
2.40443
2.40414
2.40395
2.40381
2.35204
2.35194
2.35186
2.35173
2.35155
2.35132
2.35105
2.35071
2.35031
2.34986
2.34933
2.34874
2.34807
2.34734
2.34663
2.34595
2.34538
2.34509
2.34527
2.34656
2.35094
2.36758
2.41311
2.49205
2.99694
6.30789
10.9016
19.81
31.3408
27.9015
11.8377
4.44855
3.39608
2.91917
2.65887
2.51954
2.47087
2.41927
2.40573
2.39514
2.38747
2.38222
2.3781
2.37492
2.37232
2.37014
2.36827
2.36666
2.36524
2.36401
2.36293
2.36199
2.36118
2.36049
2.35991
2.35943
2.35904
2.35875
2.35857
2.35843
2.30902
2.30893
2.30885
2.30874
2.30858
2.30838
2.30813
2.30783
2.30747
2.30706
2.30656
2.30603
2.30547
2.30489
2.30431
2.30381
2.30346
2.30345
2.30402
2.30593
2.31189
2.33395
2.39033
2.49594
3.21993
7.34447
9.33315
17.5036
24.3146
14.4176
6.64654
4.09581
3.29832
2.85728
2.62523
2.48994
2.42964
2.37795
2.36191
2.35113
2.34347
2.33828
2.33421
2.33103
2.32843
2.32628
2.32445
2.32286
2.32146
2.32024
2.31917
2.31823
2.31743
2.31674
2.31616
2.31568
2.3153
2.31502
2.31483
2.31469
2.26759
2.26751
2.26744
2.26734
2.2672
2.26702
2.2668
2.26654
2.26621
2.26583
2.2654
2.26495
2.26449
2.26403
2.26358
2.26324
2.26309
2.26336
2.26426
2.26674
2.27424
2.30125
2.36662
2.49683
3.39493
7.82913
7.98146
13.4176
21.3407
10.055
5.06921
3.95751
3.35306
2.83737
2.60949
2.45693
2.3905
2.33762
2.31904
2.30824
2.30079
2.29563
2.29168
2.28859
2.28603
2.2839
2.2821
2.28055
2.27919
2.27798
2.27693
2.27601
2.27521
2.27453
2.27396
2.27349
2.27311
2.27283
2.27264
2.2725
2.22767
2.22759
2.22753
2.22744
2.22732
2.22717
2.22697
2.22673
2.22644
2.2261
2.22576
2.22539
2.22502
2.22465
2.22433
2.22413
2.22417
2.22466
2.22585
2.22883
2.23771
2.26881
2.34067
2.48983
3.4978
7.95992
6.95051
9.95487
17.787
11.2251
5.76836
4.39697
3.60395
3.04174
2.62521
2.41462
2.35298
2.29802
2.27712
2.26645
2.25937
2.25431
2.25044
2.24747
2.245
2.24292
2.24117
2.23965
2.23834
2.23717
2.23614
2.23523
2.23445
2.23379
2.23322
2.23276
2.23239
2.23211
2.23193
2.23179
2.18916
2.18908
2.18904
2.18896
2.18886
2.18872
2.18854
2.18832
2.18808
2.18782
2.18754
2.18724
2.18694
2.18667
2.18645
2.18638
2.18658
2.18727
2.18868
2.19208
2.20207
2.23619
2.31195
2.47263
3.5256
7.90567
6.19018
7.47194
13.6239
12.1142
6.84804
4.92936
4.16108
3.76695
2.70399
2.36331
2.31625
2.25894
2.23622
2.22581
2.21915
2.21427
2.21056
2.20765
2.20525
2.20324
2.20157
2.20012
2.19884
2.19772
2.19672
2.19584
2.19508
2.19443
2.19388
2.19343
2.19307
2.1928
2.19262
2.19248
2.152
2.15193
2.15189
2.15182
2.15173
2.15161
2.15145
2.15128
2.15109
2.15088
2.15065
2.15041
2.15019
2.14999
2.14987
2.14991
2.15023
2.15105
2.15264
2.15637
2.16719
2.2032
2.28056
2.44527
3.52081
7.66321
5.64576
5.81504
9.94166
11.184
7.97437
5.36597
4.4493
4.35713
2.90378
2.33439
2.27941
2.22027
2.19641
2.18637
2.18014
2.17545
2.17195
2.16914
2.16685
2.1649
2.16326
2.16187
2.16064
2.15956
2.15861
2.15777
2.15703
2.15639
2.15586
2.15542
2.15507
2.1548
2.15463
2.15449
2.11611
2.11604
2.11601
2.11595
2.11587
2.11577
2.11565
2.11552
2.11536
2.1152
2.11502
2.11484
2.11468
2.11455
2.11451
2.11463
2.11502
2.11594
2.11768
2.12163
2.133
2.16986
2.24724
2.41286
3.4964
7.30313
5.27954
4.75765
7.16608
9.17429
8.27791
5.9748
4.65447
4.5589
3.11388
2.37633
2.24174
2.18207
2.15776
2.14815
2.14233
2.13784
2.13454
2.13185
2.12967
2.12782
2.12623
2.12485
2.12369
2.12265
2.12173
2.12093
2.12022
2.11961
2.11909
2.11867
2.11833
2.11807
2.1179
2.11777
2.08142
2.08136
2.08133
2.08129
2.08122
2.08115
2.08106
2.08096
2.08084
2.08071
2.08058
2.08045
2.08034
2.08028
2.08029
2.08047
2.08091
2.08192
2.08376
2.08779
2.0995
2.13637
2.21332
2.37874
3.45619
6.9246
5.08208
4.10916
5.28159
7.03736
7.58967
6.31526
4.83263
4.54968
3.22688
2.49027
2.20319
2.14451
2.12034
2.11115
2.10571
2.10141
2.09831
2.09574
2.09367
2.0919
2.09039
2.08906
2.08791
2.08692
2.08605
2.08528
2.08461
2.08402
2.08352
2.08311
2.08278
2.08254
2.08237
2.08224
2.04788
2.04782
2.0478
2.04776
2.04772
2.04767
2.04761
2.04753
2.04745
2.04736
2.04727
2.04718
2.04712
2.04711
2.04717
2.04739
2.04788
2.04894
2.05081
2.05486
2.06673
2.10307
2.17932
2.34437
3.40937
6.59644
5.02622
3.73053
4.06898
5.44148
6.5933
6.22577
4.85274
4.43197
3.24606
2.62579
2.16444
2.10779
2.08416
2.07535
2.07025
2.06613
2.06321
2.06076
2.0588
2.05712
2.05568
2.05441
2.05329
2.05232
2.05149
2.05076
2.05012
2.04957
2.04909
2.0487
2.04838
2.04814
2.04799
2.04786
2.01543
2.01537
2.01535
2.01533
2.01531
2.01528
2.01524
2.01519
2.01514
2.01508
2.01503
2.01499
2.01497
2.01499
2.01509
2.01533
2.01587
2.01695
2.01883
2.02286
2.03475
2.07041
2.14602
2.31239
3.36821
6.35721
5.03186
3.49394
3.48001
4.78103
5.90931
5.91194
4.68591
4.28272
3.21318
2.73449
2.12629
2.07208
2.04917
2.04071
2.03592
2.03196
2.02922
2.02687
2.02502
2.02341
2.02204
2.02084
2.01978
2.01884
2.01802
2.01733
2.01672
2.01619
2.01575
2.01537
2.01507
2.01484
2.01469
2.01456
1.984
1.98395
1.98394
1.98393
1.98392
1.98391
1.9839
1.98388
1.98385
1.98383
1.98381
1.98381
1.98382
1.98388
1.98401
1.98428
1.98485
1.98592
1.98779
1.99182
2.0037
2.03886
2.11519
2.28425
3.34974
6.28195
4.92579
3.39597
3.36788
4.53876
5.49182
5.48672
4.47135
4.14747
3.16415
2.79246
2.08932
2.0374
2.01534
2.00717
2.00267
1.99886
1.99628
1.99403
1.99228
1.99075
1.98945
1.9883
1.98729
1.9864
1.98561
1.98493
1.98436
1.98386
1.98344
1.98308
1.98279
1.98258
1.98243
1.98231
1.95356
1.95351
1.95351
1.95352
1.95352
1.95353
1.95353
1.95354
1.95354
1.95355
1.95356
1.95359
1.95364
1.95373
1.95387
1.95419
1.95478
1.95584
1.9577
1.96175
1.97369
2.00887
2.0878
2.26525
3.37783
6.37179
4.61228
3.30366
3.3738
4.37487
5.18189
5.08432
4.29517
4.03123
3.11476
2.79925
2.05393
2.00372
1.98261
1.97469
1.97045
1.96678
1.96435
1.9622
1.96055
1.95909
1.95785
1.95676
1.9558
1.95495
1.95421
1.95355
1.95299
1.95252
1.95212
1.95179
1.95151
1.95131
1.95117
1.95105
1.92406
1.92401
1.92402
1.92403
1.92405
1.92408
1.9241
1.92413
1.92416
1.9242
1.92424
1.9243
1.92438
1.92448
1.92467
1.92503
1.92563
1.9267
1.92855
1.93267
1.9448
1.98058
2.06362
2.25778
3.51188
6.38852
4.20473
3.20945
3.42767
4.30357
4.9059
4.73942
4.15165
3.92642
3.07447
2.76752
2.02056
1.97102
1.9509
1.94322
1.93922
1.93568
1.9334
1.93133
1.92977
1.92838
1.92721
1.92617
1.92526
1.92446
1.92375
1.92312
1.92258
1.92212
1.92175
1.92143
1.92118
1.92098
1.92085
1.92074
1.89544
1.8954
1.89542
1.89544
1.89547
1.89551
1.89556
1.89561
1.89566
1.89573
1.89581
1.8959
1.896
1.89614
1.89636
1.89675
1.89737
1.89846
1.90031
1.90456
1.91702
1.95384
2.04158
2.25942
3.71127
6.07848
3.92406
3.21088
3.50272
4.21525
4.65675
4.45825
4.02135
3.83032
3.04706
2.71385
1.98981
1.9393
1.92018
1.91271
1.90894
1.90551
1.90337
1.90139
1.89991
1.89859
1.89748
1.8965
1.89564
1.89487
1.8942
1.89361
1.89309
1.89265
1.89228
1.89199
1.89175
1.89157
1.89145
1.89134
1.86768
1.86764
1.86766
1.8677
1.86774
1.8678
1.86786
1.86793
1.86801
1.86811
1.86821
1.86833
1.86845
1.86864
1.8689
1.86932
1.86997
1.87109
1.87297
1.87736
1.89024
1.92826
2.02069
2.26626
3.91437
5.61937
3.87047
3.3386
3.60111
4.09785
4.39072
4.24624
3.90607
3.75366
3.03074
2.65558
1.96212
1.90865
1.8904
1.88312
1.87956
1.87625
1.87423
1.87233
1.87094
1.86968
1.86864
1.8677
1.86689
1.86616
1.86552
1.86496
1.86448
1.86406
1.8637
1.86341
1.86319
1.86303
1.86291
1.86281
1.84072
1.84069
1.84072
1.84076
1.84082
1.84089
1.84097
1.84106
1.84117
1.84129
1.84142
1.84156
1.84173
1.84195
1.84225
1.84271
1.84339
1.84456
1.84648
1.85102
1.86434
1.90345
1.99982
2.27511
4.08154
4.95267
3.87414
3.52767
3.70617
3.94783
4.08934
3.95098
3.76593
3.61099
2.90769
2.6053
1.93702
1.8791
1.8615
1.85441
1.85104
1.84786
1.84595
1.84413
1.84281
1.84162
1.84063
1.83975
1.83898
1.83829
1.83769
1.83716
1.8367
1.8363
1.83596
1.83568
1.83547
1.83532
1.83521
1.83511
1.81453
1.81451
1.81455
1.8146
1.81467
1.81475
1.81485
1.81496
1.81509
1.81524
1.8154
1.81556
1.81577
1.81604
1.81638
1.81688
1.8176
1.81882
1.82079
1.82548
1.83919
1.87933
1.98748
2.59077
4.19377
4.71891
3.91935
3.59228
3.66943
3.79021
3.87448
3.77496
3.66291
3.5185
2.90342
2.57068
1.88756
1.85055
1.83339
1.82656
1.82336
1.8203
1.81849
1.81675
1.8155
1.81437
1.81344
1.8126
1.81187
1.81123
1.81066
1.81015
1.80972
1.80934
1.80903
1.80876
1.80855
1.8084
1.80831
1.80822
1.78909
1.78907
1.78911
1.78917
1.78925
1.78935
1.78947
1.7896
1.78975
1.78992
1.79011
1.79031
1.79055
1.79086
1.79124
1.79179
1.79255
1.79383
1.79585
1.80068
1.81473
1.8557
1.97487
2.6328
4.58871
4.31008
3.84616
3.60322
3.5847
3.58277
3.58852
3.52063
3.47679
3.26853
2.81534
2.27724
1.86388
1.82323
1.80605
1.79955
1.79648
1.79354
1.79182
1.79016
1.78898
1.78791
1.78703
1.78624
1.78555
1.78494
1.7844
1.78393
1.78351
1.78316
1.78286
1.78261
1.78241
1.78227
1.78218
1.7821
1.76435
1.76434
1.76438
1.76445
1.76454
1.76466
1.76479
1.76494
1.76512
1.76531
1.76551
1.76575
1.76604
1.76639
1.76681
1.76741
1.76822
1.76955
1.77162
1.77656
1.79086
1.83235
1.95983
2.65933
4.46898
4.16476
3.78784
3.5432
3.4841
3.44403
3.43154
3.3919
3.37345
3.19488
2.8076
2.25483
1.84259
1.79729
1.77946
1.77336
1.77038
1.76755
1.76591
1.76433
1.76322
1.7622
1.76137
1.76062
1.75997
1.7594
1.75889
1.75844
1.75805
1.75772
1.75743
1.7572
1.75701
1.75687
1.75679
1.75671
1.74028
1.74028
1.74033
1.74041
1.74051
1.74063
1.74078
1.74096
1.74115
1.74136
1.7416
1.74187
1.7422
1.74259
1.74305
1.7437
1.74456
1.74595
1.74807
1.75308
1.76753
1.80916
1.94184
2.67239
4.35464
4.03421
3.72671
3.48354
3.39262
3.32006
3.28794
3.2709
3.27859
3.12759
2.79834
2.23877
1.82373
1.77302
1.75362
1.74795
1.74502
1.74231
1.74073
1.73924
1.73818
1.73722
1.73643
1.73573
1.73511
1.73457
1.73409
1.73367
1.7333
1.73298
1.73272
1.73249
1.73232
1.73219
1.7321
1.73203
1.71687
1.71687
1.71692
1.717
1.71712
1.71726
1.71742
1.71761
1.71782
1.71805
1.71832
1.71864
1.719
1.71943
1.71993
1.72063
1.72154
1.72298
1.72515
1.73019
1.74466
1.786
1.92062
2.67357
4.24585
3.91547
3.66475
3.42538
3.30972
3.21044
3.15624
3.15511
3.18903
3.06453
2.78854
2.22911
1.80691
1.75042
1.72857
1.72329
1.72038
1.7178
1.71627
1.71486
1.71384
1.71294
1.71219
1.71153
1.71095
1.71044
1.70998
1.70959
1.70924
1.70894
1.70869
1.70848
1.70831
1.70818
1.7081
1.70803
1.69406
1.69407
1.69413
1.69422
1.69434
1.69449
1.69467
1.69488
1.69511
1.69537
1.69567
1.69601
1.6964
1.69687
1.69742
1.69817
1.69913
1.70061
1.70283
1.70786
1.72226
1.76298
1.89722
2.66673
4.13741
3.80765
3.60303
3.37063
3.23448
3.11404
3.03607
3.04383
3.10308
3.00562
2.77875
2.22541
1.79226
1.7295
1.70436
1.69933
1.69646
1.69399
1.6925
1.69116
1.69019
1.68934
1.68863
1.688
1.68745
1.68697
1.68654
1.68616
1.68584
1.68555
1.68531
1.68511
1.68495
1.68484
1.68476
1.68469
1.67186
1.67187