/*--------------------------------*- C++ -*----------------------------------*\
  =========                 |
  \\      /  F ield         | OpenFOAM: The Open Source CFD Toolbox
   \\    /   O peration     | Website:  https://openfoam.org
    \\  /    A nd           | Version:  12
     \\/     M anipulation  |
\*---------------------------------------------------------------------------*/
FoamFile
{
    format      ascii;
    class       volScalarField;
    location    "340";
    object      p;
}
// * * * * * * * * * * * * * * * * * * * * * * * * * * * * * * * * * * * * * //

dimensions      [0 2 -2 0 0 0 0];

internalField   nonuniform List<scalar> 
16227
(
0.095573
0.0955553
0.0955188
0.0954612
0.0953789
0.0952673
0.0951206
0.0949318
0.0946929
0.0943951
0.0940285
0.0935826
0.0930461
0.0924069
0.0916528
0.0907714
0.0897506
0.0885784
0.0872438
0.0857369
0.0840491
0.0821736
0.0801057
0.077843
0.0753861
0.0727381
0.0699055
0.0668974
0.0637266
0.0604078
0.0569589
0.0533999
0.0497528
0.0460409
0.0422885
0.03852
0.0347598
0.0310318
0.0273587
0.0237618
0.0202607
0.0168732
0.0136149
0.0104996
0.00753886
0.00474235
0.00211793
-0.000328227
-0.0025916
-0.00466877
-0.00655756
-0.0082567
-0.00976561
-0.0110845
-0.0122135
-0.0131528
-0.013903
-0.0144649
-0.0148391
-0.0150265
0.0955865
0.0955696
0.0955348
0.0954798
0.095401
0.0952937
0.0951521
0.0949691
0.0947369
0.0944463
0.0940875
0.0936499
0.0931221
0.0924919
0.0917469
0.0908746
0.0898624
0.0886983
0.0873711
0.0858706
0.0841877
0.0823157
0.0802495
0.0779865
0.0755272
0.0728746
0.0700351
0.067018
0.0638358
0.0605035
0.0570394
0.0534641
0.0497998
0.04607
0.0422995
0.038513
0.0347354
0.0309907
0.0273019
0.0236905
0.0201763
0.0167772
0.0135089
0.010385
0.00741717
0.00461494
0.00198601
-0.00046358
-0.00272939
-0.00480815
-0.00669791
-0.00839754
-0.00990671
-0.0112255
-0.0123539
-0.0132926
-0.0140422
-0.0146036
-0.0149775
-0.0151645
0.0956172
0.0956023
0.0955714
0.0955221
0.095451
0.0953532
0.0952229
0.0950529
0.0948353
0.0945609
0.0942196
0.0938004
0.0932919
0.0926817
0.0919569
0.0911045
0.0901116
0.0889656
0.0876548
0.0861682
0.0844965
0.0826322
0.0805697
0.0783061
0.0758413
0.0731783
0.0703234
0.0672859
0.0640785
0.0607165
0.0572189
0.0536073
0.0499045
0.046135
0.042324
0.0384975
0.0346807
0.0308988
0.0271749
0.0235314
0.0199881
0.0165633
0.0132725
0.0101296
0.00714598
0.00433099
0.00169203
-0.00076512
-0.00303627
-0.00511861
-0.00701055
-0.00871129
-0.0102208
-0.011539
-0.0126663
-0.0136038
-0.0143522
-0.0149125
-0.0152856
-0.0154722
0.0956712
0.0956597
0.0956354
0.0955959
0.0955377
0.0954559
0.0953446
0.0951967
0.0950039
0.0947568
0.094445
0.094057
0.0935813
0.093005
0.0923144
0.0914959
0.0905358
0.0894206
0.0881377
0.086675
0.0850222
0.0831709
0.0811148
0.07885
0.076376
0.0736953
0.0708139
0.0677416
0.0644911
0.0610785
0.0575239
0.0538503
0.0500818
0.0462442
0.0423642
0.0384691
0.0345857
0.0307402
0.0269568
0.0232585
0.0196659
0.0161973
0.0128687
0.00969361
0.00668335
0.00384684
0.00119116
-0.00127854
-0.00355854
-0.00564673
-0.00754214
-0.00924469
-0.0107546
-0.0120714
-0.0131968
-0.0141321
-0.0148783
-0.0154369
-0.0158086
-0.0159944
0.0957463
0.0957394
0.0957242
0.0956983
0.095658
0.0955986
0.0955139
0.0953967
0.0952384
0.0950295
0.094759
0.0944148
0.093985
0.0934563
0.092814
0.0920434
0.0911298
0.0900586
0.0888157
0.0873868
0.0857609
0.0839286
0.0818819
0.079616
0.0771293
0.0744238
0.0715054
0.0683838
0.0650724
0.0615883
0.0579528
0.0541914
0.0503296
0.0463954
0.0424175
0.0384254
0.0344479
0.0305126
0.0266455
0.0228704
0.0192087
0.0156793
0.0122981
0.00907862
0.00603177
0.00316596
0.000487636
-0.0019988
-0.00429048
-0.00638618
-0.00828603
-0.00999052
-0.0114997
-0.0128142
-0.0139364
-0.0148683
-0.0156113
-0.0161672
-0.0165369
-0.0167215
0.0958346
0.0958336
0.09583
0.0958212
0.0958038
0.0957727
0.0957217
0.0956434
0.0955291
0.0953688
0.0951513
0.0948635
0.0944927
0.0940251
0.0934451
0.0927367
0.0918837
0.0908703
0.0896799
0.0882956
0.0867058
0.0848995
0.0828665
0.0806005
0.0780986
0.075362
0.0723964
0.0692116
0.0658219
0.062245
0.0585051
0.0546296
0.0506467
0.0465871
0.0424824
0.0383649
0.0342658
0.030215
0.0262404
0.0223671
0.0186176
0.0150111
0.0115639
0.00828914
0.00519705
0.0022955
-0.000410064
-0.00291632
-0.00522133
-0.00732536
-0.00922974
-0.0109353
-0.0124419
-0.0137524
-0.01487
-0.0157969
-0.0165352
-0.0170873
-0.0174542
-0.0176373
0.0959274
0.0959335
0.0959438
0.0959558
0.095966
0.0959693
0.0959594
0.0959286
0.095868
0.0957673
0.0956149
0.0953968
0.0950989
0.0947071
0.0942048
0.0935744
0.0927979
0.0918575
0.0907336
0.0894073
0.0878649
0.0860933
0.0840799
0.0818161
0.0792975
0.0765242
0.0735014
0.070239
0.0667522
0.0630603
0.05919
0.055172
0.0510379
0.0468216
0.0425587
0.038285
0.034035
0.0298414
0.0257344
0.0217408
0.0178844
0.0141848
0.0106583
0.00731777
0.00417277
0.00122991
-0.00150653
-0.00403445
-0.0063536
-0.00846601
-0.0103738
-0.0120779
-0.0135797
-0.014884
-0.0159946
-0.0169145
-0.0176465
-0.0181933
-0.0185565
-0.0187374
0.0960162
0.0960306
0.0960574
0.096094
0.0961368
0.0961808
0.0962196
0.0962453
0.0962486
0.0962191
0.0961447
0.0960109
0.0958016
0.0955017
0.095094
0.0945592
0.0938774
0.0930275
0.091987
0.0907343
0.0892531
0.0875276
0.0855417
0.0832842
0.0807486
0.0779334
0.0748429
0.0714875
0.0678831
0.0640512
0.0600215
0.0558292
0.0515096
0.0471016
0.0426453
0.0381811
0.0337476
0.0293811
0.0251148
0.0209776
0.0169944
0.0131852
0.0095665
0.00615033
0.00294527
-4.33296e-05
-0.00281304
-0.00536333
-0.00769621
-0.00981581
-0.0117247
-0.0134233
-0.0149171
-0.0162122
-0.0173128
-0.018223
-0.0189463
-0.0194862
-0.0198443
-0.0200226
0.096093
0.096117
0.0961627
0.0962276
0.0963082
0.0963994
0.0964947
0.0965862
0.0966644
0.0967182
0.0967353
0.0967009
0.0965974
0.0964073
0.0961127
0.0956933
0.0951264
0.0943875
0.0934505
0.0922902
0.0908867
0.0892214
0.0872734
0.0850284
0.0824768
0.079615
0.0764464
0.0729813
0.0692368
0.0652367
0.061015
0.0566119
0.0520681
0.0474283
0.0427388
0.0380455
0.0333925
0.0288204
0.0243657
0.0200598
0.015929
0.0119941
0.00827062
0.00477
0.00149919
-0.00153826
-0.00434196
-0.00691397
-0.00925907
-0.0113826
-0.0132872
-0.0149759
-0.0164576
-0.017739
-0.0188258
-0.0197229
-0.0204348
-0.0209654
-0.0213169
-0.0214917
0.096149
0.0961837
0.0962508
0.0963478
0.0964712
0.096616
0.0967758
0.0969426
0.0971067
0.0972566
0.0973795
0.0974604
0.0974806
0.0974198
0.0972595
0.0969777
0.0965488
0.095944
0.0951338
0.0940882
0.092783
0.0911953
0.089299
0.0870754
0.0845108
0.0815989
0.0783415
0.0747486
0.0708388
0.0666389
0.0621877
0.0575322
0.0527197
0.0478023
0.0428342
0.0378683
0.0329555
0.0281416
0.0234673
0.0189666
0.014667
0.0105901
0.00675061
0.00315815
-0.000182322
-0.00326962
-0.00610596
-0.0086969
-0.0110503
-0.0131726
-0.0150655
-0.0167387
-0.0182026
-0.019465
-0.020533
-0.0214126
-0.0221094
-0.022628
-0.0229711
-0.0231416
0.0961733
0.09622
0.0963109
0.0964437
0.0966149
0.0968197
0.0970518
0.0973033
0.0975647
0.097824
0.0980678
0.0982808
0.098444
0.0985344
0.0985315
0.0984118
0.0981469
0.097703
0.0970472
0.0961431
0.0949614
0.0934733
0.0916468
0.089457
0.0868853
0.0839213
0.0805644
0.0768243
0.0727211
0.068285
0.0635613
0.0586049
0.0534719
0.048224
0.0429249
0.0376369
0.0324188
0.0273229
0.0223949
0.0176719
0.0131826
0.00894815
0.00498252
0.00129298
-0.00211856
-0.0052541
-0.00811969
-0.0107244
-0.013079
-0.0151907
-0.0170641
-0.0187144
-0.0201532
-0.0213896
-0.0224327
-0.0232896
-0.0239669
-0.0244702
-0.0248027
-0.0249678
0.0961539
0.0962136
0.0963307
0.0965027
0.0967267
0.0969978
0.09731
0.0976557
0.0980256
0.0984078
0.0987885
0.0991517
0.0994783
0.0997434
0.0999231
0.0999931
0.0999221
0.0996708
0.0992022
0.0984728
0.0974453
0.096084
0.0943507
0.0922123
0.0896428
0.0866269
0.0831604
0.0792521
0.0749235
0.0702093
0.0651624
0.0598481
0.0543336
0.0486927
0.0430015
0.037334
0.0317588
0.0263364
0.0211177
0.0161433
0.0114432
0.00703737
0.00293773
-0.000851612
-0.00433256
-0.00751173
-0.0104004
-0.0130105
-0.0153551
-0.017444
-0.019288
-0.0209057
-0.0223099
-0.023512
-0.0245225
-0.0253503
-0.0260031
-0.0264872
-0.0268065
-0.0269647
0.0960774
0.0961513
0.0962967
0.0965114
0.0967926
0.0971361
0.097536
0.0979854
0.0984749
0.0989936
0.0995274
0.10006
0.100572
0.101037
0.101428
0.101719
0.101875
0.101853
0.10161
0.101095
0.10026
0.0990603
0.0974512
0.0953878
0.0928352
0.0897707
0.0861851
0.0820857
0.0774954
0.0724537
0.0670237
0.0612835
0.0553145
0.0492064
0.0430509
0.0369368
0.030945
0.0251458
0.0195965
0.0143407
0.00940915
0.00482013
0.000581736
-0.00330625
-0.00685096
-0.0100651
-0.0129659
-0.0155683
-0.0178874
-0.0199401
-0.0217423
-0.0233149
-0.024673
-0.0258304
-0.0267994
-0.0275906
-0.0282128
-0.0286731
-0.0289761
-0.0291261
0.0959297
0.0960187
0.0961944
0.0964548
0.0967976
0.097219
0.0977139
0.0982758
0.0988963
0.0995647
0.100268
0.100989
0.101709
0.102401
0.103036
0.103583
0.104004
0.104253
0.104281
0.104028
0.103432
0.10244
0.100995
0.0990389
0.0965245
0.0934193
0.089707
0.0853917
0.0804977
0.0750705
0.0691855
0.0629371
0.0564253
0.0497603
0.0430542
0.0364144
0.0299375
0.0237051
0.0177818
0.0122144
0.00703248
0.00225145
-0.00212585
-0.00610637
-0.0097046
-0.0129406
-0.0158366
-0.0184112
-0.0206868
-0.022687
-0.0244311
-0.0259433
-0.0272413
-0.0283419
-0.029259
-0.0300047
-0.0305892
-0.0310205
-0.0313037
-0.0314437
0.0956955
0.0958004
0.096008
0.0963168
0.0967249
0.0972293
0.0978258
0.0985086
0.0992705
0.100102
0.10099
0.101919
0.102871
0.103818
0.10473
0.105572
0.106303
0.106872
0.107224
0.107289
0.106992
0.106264
0.105036
0.103231
0.100786
0.0976541
0.0938102
0.0892527
0.0840064
0.0781244
0.0716968
0.0648397
0.0576774
0.0503463
0.0429854
0.0357258
0.0286838
0.0219551
0.0156116
0.00970247
0.00425483
-0.000721856
-0.00523241
-0.0092931
-0.012929
-0.0161668
-0.0190334
-0.0215548
-0.0237649
-0.0256914
-0.0273572
-0.0287907
-0.0300125
-0.0310419
-0.0318949
-0.0325852
-0.0331242
-0.0335204
-0.03378
-0.0339081
0.0953586
0.0954801
0.0957209
0.0960802
0.0965567
0.0971483
0.0978519
0.0986631
0.099576
0.100582
0.101671
0.102828
0.104034
0.105266
0.106491
0.10767
0.108761
0.109708
0.110446
0.110898
0.11097
0.110579
0.109637
0.108041
0.105709
0.102575
0.0985988
0.0937713
0.0881167
0.0816961
0.0746188
0.0670288
0.0590819
0.0509503
0.0428073
0.0348154
0.0271153
0.0198195
0.0130077
0.0067291
0.00100546
-0.00416294
-0.00879266
-0.0129125
-0.0165605
-0.0197708
-0.0225754
-0.0250154
-0.0271328
-0.0289587
-0.030522
-0.0318552
-0.0329819
-0.033924
-0.0346991
-0.0353228
-0.0358073
-0.0361619
-0.0363935
-0.0365076
0.0949025
0.0950408
0.0953158
0.0957269
0.0962739
0.0969558
0.0977709
0.0987165
0.0997886
0.100981
0.102285
0.103688
0.105173
0.106718
0.108291
0.109854
0.111358
0.112749
0.113947
0.114868
0.1154
0.115439
0.114867
0.113559
0.111402
0.108304
0.104202
0.0990766
0.0929482
0.0858877
0.078028
0.0695493
0.0606504
0.0515503
0.0424684
0.033608
0.0251412
0.0171996
0.00987086
0.00320016
-0.00280058
-0.00814627
-0.0128705
-0.017018
-0.0206398
-0.0237798
-0.0264838
-0.0288077
-0.0307985
-0.0324917
-0.0339244
-0.0351326
-0.0361427
-0.036979
-0.0376611
-0.0382057
-0.038626
-0.0389319
-0.0391308
-0.0392284
0.0943099
0.0944653
0.0947745
0.0952381
0.0958565
0.0966304
0.0975597
0.0986439
0.0998812
0.101268
0.102799
0.104465
0.106251
0.108138
0.110097
0.11209
0.114068
0.115973
0.117718
0.119207
0.12031
0.120892
0.120807
0.119895
0.117999
0.114992
0.110783
0.105333
0.0986547
0.0908296
0.0820205
0.0724556
0.0623917
0.0521108
0.0418947
0.0319997
0.0226391
0.0139669
0.00607533
-0.000999877
-0.00726544
-0.012759
-0.0175391
-0.0216682
-0.0252098
-0.0282247
-0.0307805
-0.032944
-0.0347666
-0.0362904
-0.0375604
-0.0386155
-0.0394851
-0.0401954
-0.0407676
-0.0412197
-0.0415653
-0.0418148
-0.041976
-0.0420548
0.0935636
0.0937357
0.0940788
0.0945942
0.0952837
0.0961494
0.0971936
0.0984181
0.0998243
0.101412
0.103179
0.105121
0.107228
0.109484
0.111866
0.114336
0.11685
0.119346
0.121735
0.123908
0.125717
0.12699
0.127545
0.127172
0.125656
0.122823
0.118543
0.112745
0.105431
0.0966882
0.0867186
0.0758148
0.0643122
0.0525803
0.0409843
0.0298518
0.0194469
0.00995379
0.00146294
-0.0060126
-0.0125105
-0.0181012
-0.0228759
-0.0269188
-0.0303084
-0.0331353
-0.0354858
-0.0374344
-0.0390388
-0.040351
-0.041422
-0.0422927
-0.0429952
-0.0435576
-0.0440023
-0.0443475
-0.0446074
-0.0447925
-0.0449108
-0.0449681
0.0926462
0.0928344
0.0932102
0.0937757
0.0945341
0.0954896
0.0966467
0.0980103
0.0995853
0.101376
0.103385
0.105612
0.108055
0.110703
0.11354
0.116535
0.119647
0.122819
0.125958
0.128949
0.131628
0.133784
0.135181
0.13554
0.134571
0.132034
0.127744
0.121586
0.113535
0.103683
0.0922797
0.0797051
0.0664053
0.052871
0.0395813
0.0269581
0.0153399
0.00493908
-0.00416767
-0.0120126
-0.0186816
-0.0242893
-0.0289656
-0.0328251
-0.0359762
-0.0385383
-0.0406126
-0.0422814
-0.0436109
-0.0446642
-0.0454955
-0.0461478
-0.0466549
-0.0470464
-0.0473447
-0.0475684
-0.0477313
-0.047844
-0.047914
-0.0479473
0.0915411
0.0917442
0.0921504
0.0927628
0.0935863
0.0946269
0.0958921
0.09739
0.0991297
0.10112
0.10337
0.105887
0.108675
0.111732
0.115052
0.118613
0.122384
0.126314
0.130318
0.134278
0.13802
0.141298
0.143806
0.145163
0.144952
0.142882
0.138689
0.132182
0.123289
0.112097
0.0989111
0.084235
0.0686712
0.0528817
0.0375024
0.0230771
0.0100191
-0.00136532
-0.0110698
-0.0192084
-0.0259431
-0.0314464
-0.0358944
-0.0394454
-0.0422512
-0.0444534
-0.0461654
-0.0474788
-0.0484713
-0.0492134
-0.0497612
-0.0501587
-0.0504411
-0.0506378
-0.0507709
-0.050858
-0.0509128
-0.050945
-0.0509617
-0.0509684
0.0902323
0.0904488
0.0908823
0.091537
0.0924193
0.0935377
0.0949025
0.0965258
0.098421
0.100603
0.103087
0.105889
0.109022
0.112496
0.116316
0.120475
0.124958
0.129726
0.134712
0.139804
0.144832
0.14953
0.153515
0.156278
0.157194
0.155829
0.151883
0.145061
0.135197
0.122349
0.106895
0.0895075
0.0710217
0.0523467
0.0343369
0.0176839
0.0030235
-0.00935456
-0.0195593
-0.0278388
-0.0344643
-0.0396872
-0.0437373
-0.0468316
-0.0491609
-0.0508878
-0.0521373
-0.053011
-0.0535985
-0.0539732
-0.0541912
-0.0542967
-0.0543246
-0.0543028
-0.054252
-0.0541885
-0.0541243
-0.0540684
-0.054027
-0.0540048
0.0887056
0.0889333
0.0893898
0.0900803
0.0910131
0.092199
0.0936514
0.0953863
0.0974222
0.09978
0.102483
0.105556
0.109023
0.112908
0.117234
0.122009
0.127241
0.132915
0.13899
0.145378
0.151933
0.158408
0.164344
0.169081
0.171371
0.171047
0.167622
0.160608
0.149688
0.134842
0.116532
0.0956777
0.0734535
0.0511244
0.0298787
0.010565
-0.00618911
-0.0195001
-0.0300131
-0.0381773
-0.0444318
-0.0491288
-0.052567
-0.0550222
-0.0567168
-0.0578318
-0.0585051
-0.058849
-0.058959
-0.0589075
-0.0587488
-0.0585255
-0.0582699
-0.0580071
-0.0577551
-0.0575278
-0.0573351
-0.0571844
-0.0570805
-0.0570273
0.0869487
0.0871848
0.0876589
0.0883773
0.0893499
0.0905898
0.0921134
0.093941
0.0960963
0.0986065
0.101503
0.104821
0.108598
0.112874
0.117688
0.123077
0.129071
0.135695
0.142945
0.150775
0.15909
0.167738
0.176269
0.183783
0.183381
0.184919
0.183101
0.17729
0.166844
0.151439
0.131389
0.10778
0.082092
0.0559971
0.0310472
0.00842982
-0.0185091
-0.0324795
-0.0428526
-0.0505038
-0.0560285
-0.0598781
-0.0624362
-0.0640293
-0.0649033
-0.0652524
-0.0652271
-0.0649468
-0.0645047
-0.0639683
-0.0633876
-0.0628007
-0.0622351
-0.0617111
-0.0612427
-0.0608404
-0.0605112
-0.0602601
-0.0600904
-0.0600044
0.0849519
0.0851934
0.0856786
0.0864151
0.0874141
0.0886912
0.0902656
0.0921616
0.0944081
0.0970391
0.100094
0.103619
0.107664
0.112288
0.117553
0.123521
0.130258
0.137833
0.1463
0.155679
0.165947
0.177112
0.189171
0.192887
0.201202
0.205164
0.205046
0.199943
0.188759
0.170716
0.146091
0.116466
0.0841666
0.0517319
0.0213542
-0.00497569
-0.0258136
-0.0491535
-0.0585627
-0.0650971
-0.0694047
-0.0720048
-0.073356
-0.0738235
-0.0736665
-0.0730852
-0.0722372
-0.0712376
-0.0701704
-0.069094
-0.0680504
-0.0670695
-0.0661714
-0.0653697
-0.0646732
-0.0640876
-0.0636161
-0.0632607
-0.0630228
-0.062903
0.0827088
0.0829518
0.0834407
0.0841838
0.0851938
0.0864881
0.0880888
0.0900235
0.0923261
0.0950368
0.0982032
0.101882
0.106137
0.111045
0.116691
0.12317
0.130585
0.139053
0.148703
0.159654
0.171973
0.185744
0.2021
0.207934
0.219749
0.224851
0.226826
0.224108
0.214151
0.195133
0.166783
0.131151
0.0916565
0.0520535
0.015261
-0.0238523
-0.04561
-0.0700434
-0.0774329
-0.0821405
-0.0846362
-0.0855051
-0.0852744
-0.0843223
-0.082909
-0.0812322
-0.0794399
-0.0776309
-0.0758727
-0.0742091
-0.0726689
-0.0712705
-0.0700235
-0.0689333
-0.0680013
-0.0672276
-0.0666109
-0.0661497
-0.0658425
-0.0656886
0.0802165
0.0804568
0.0809408
0.0816776
0.0826809
0.0839696
0.0855682
0.087507
0.0898239
0.0925648
0.0957845
0.099549
0.103937
0.109039
0.114966
0.121843
0.129815
0.139049
0.149743
0.162138
0.176422
0.192576
0.21287
0.222226
0.239129
0.249623
0.255113
0.256
0.247672
0.226162
0.190407
0.143563
0.091716
0.0411479
-0.00390023
-0.0490533
-0.0700498
-0.0950492
-0.0994581
-0.101641
-0.101656
-0.100264
-0.0980485
-0.0953708
-0.0924797
-0.0895522
-0.0867061
-0.0840109
-0.0815092
-0.0792236
-0.0771645
-0.0753345
-0.0737308
-0.0723478
-0.0711788
-0.070217
-0.0694556
-0.0688893
-0.0685137
-0.068326
0.077476
0.0777092
0.0781791
0.0788956
0.0798728
0.0811307
0.0826951
0.0845989
0.0868825
0.0895961
0.0928006
0.0965697
0.100993
0.106177
0.11225
0.119368
0.127714
0.137505
0.148995
0.162544
0.178528
0.196832
0.220785
0.234158
0.256321
0.273612
0.286336
0.295037
0.292242
0.269667
0.223701
0.159832
0.0896848
0.0242885
-0.0302599
-0.0812837
-0.101557
-0.124795
-0.124957
-0.123569
-0.120275
-0.116043
-0.111425
-0.10673
-0.102165
-0.0978571
-0.0938714
-0.0902361
-0.0869591
-0.0840344
-0.0814489
-0.0791863
-0.0772281
-0.0755569
-0.074156
-0.0730112
-0.0721098
-0.0714421
-0.0710006
-0.0707804
0.074493
0.0747143
0.0751605
0.0758415
0.076772
0.077972
0.0794681
0.0812941
0.083492
0.0861147
0.0892265
0.0929067
0.0972524
0.102381
0.108438
0.115597
0.124075
0.134134
0.146078
0.160346
0.177537
0.197505
0.224526
0.242067
0.269865
0.29551
0.319373
0.343104
0.354116
0.334261
0.272492
0.17942
0.0800196
-0.00575213
-0.0700277
-0.125249
-0.141691
-0.160047
-0.154038
-0.14768
-0.140126
-0.132448
-0.125032
-0.118073
-0.111686
-0.10591
-0.100737
-0.0961416
-0.0920856
-0.0885278
-0.0854274
-0.082746
-0.0804481
-0.0785026
-0.0768826
-0.0755658
-0.0745335
-0.0737714
-0.0732686
-0.0730183
0.0712776
0.0714821
0.0718946
0.0725251
0.0733874
0.0745017
0.0758938
0.0775972
0.0796542
0.0821177
0.0850533
0.088542
0.0926844
0.0976045
0.103455
0.110422
0.118742
0.12871
0.140665
0.155082
0.172708
0.193364
0.222094
0.243263
0.275346
0.310151
0.349116
0.39934
0.442639
0.437241
0.347898
0.198355
0.0499475
-0.0609172
-0.131694
-0.185123
-0.191999
-0.200685
-0.186077
-0.173251
-0.160524
-0.148876
-0.138359
-0.128977
-0.120697
-0.11343
-0.107078
-0.101545
-0.0967409
-0.0925838
-0.0890019
-0.0859329
-0.0833233
-0.0811282
-0.0793102
-0.0778387
-0.0766891
-0.0758426
-0.0752852
-0.0750083
0.067845
0.0680277
0.0683969
0.0689616
0.0697349
0.0707354
0.0719877
0.0735237
0.0753833
0.0776178
0.0802905
0.0834806
0.0872874
0.091834
0.0972735
0.103794
0.111632
0.121093
0.132529
0.146403
0.163473
0.183398
0.211611
0.234656
0.26696
0.308398
0.361525
0.452488
0.568452
0.616627
0.470562
0.195808
-0.0324291
-0.163198
-0.226061
-0.263837
-0.252592
-0.245099
-0.219482
-0.198951
-0.180403
-0.164479
-0.15074
-0.138924
-0.128792
-0.120102
-0.112647
-0.106253
-0.100773
-0.0960818
-0.0920757
-0.0886687
-0.0857896
-0.0833805
-0.0813935
-0.0797909
-0.0785422
-0.0776246
-0.0770214
-0.0767221
0.0642149
0.0643714
0.0646879
0.0651724
0.0658366
0.0666968
0.067775
0.0690998
0.0707075
0.0726443
0.0749685
0.0777536
0.0810916
0.0850978
0.0899173
0.0957276
0.102749
0.11127
0.121622
0.134209
0.149657
0.167303
0.1923
0.213941
0.23856
0.276788
0.325702
0.455942
0.718586
0.965567
0.668675
0.0740283
-0.243525
-0.343514
-0.359868
-0.359492
-0.320073
-0.289668
-0.251554
-0.222817
-0.198307
-0.178183
-0.161384
-0.147328
-0.135537
-0.125597
-0.117196
-0.110077
-0.104036
-0.0989081
-0.0945591
-0.0908821
-0.0877897
-0.0852122
-0.0830933
-0.0813887
-0.0800633
-0.0790909
-0.0784524
-0.078136
0.0604117
0.060538
0.0607934
0.0611848
0.0617216
0.0624172
0.06329
0.0643636
0.0656685
0.067244
0.0691396
0.0714188
0.0741615
0.0774681
0.0814664
0.0863132
0.0921989
0.099373
0.108118
0.118752
0.131657
0.145768
0.165351
0.181987
0.189532
0.204553
0.197769
0.280137
0.630716
1.56464
0.866149
-0.6457
-0.723298
-0.616667
-0.523395
-0.459663
-0.385657
-0.328641
-0.278567
-0.242344
-0.212504
-0.188789
-0.16945
-0.153593
-0.140499
-0.129603
-0.120494
-0.112845
-0.106401
-0.100964
-0.0963764
-0.0925135
-0.089276
-0.086585
-0.0843779
-0.0826055
-0.0812294
-0.0802208
-0.0795593
-0.0792315
0.0564642
0.0565567
0.0567441
0.0570313
0.0574252
0.0579356
0.0585759
0.0593638
0.0603221
0.0614804
0.062877
0.064561
0.0665954
0.0690597
0.0720564
0.0757134
0.0801835
0.0856651
0.0923865
0.100592
0.110408
0.120496
0.133986
0.143888
0.130652
0.104769
-0.0246323
-0.210354
-0.327538
-3.29616
-1.41851
-0.902634
-0.669907
-0.539866
-0.43619
-0.355145
-0.296376
-0.254891
-0.221278
-0.195167
-0.174176
-0.157191
-0.143311
-0.131861
-0.122356
-0.114421
-0.107768
-0.102176
-0.0974712
-0.0935199
-0.0902149
-0.0874722
-0.0852254
-0.083423
-0.0820246
-0.0810005
-0.080329
-0.0799965
0.0524046
0.0524607
0.0525745
0.0527492
0.0529883
0.0532975
0.0536844
0.0541595
0.0547362
0.0554328
0.0562732
0.0572891
0.0585224
0.0600264
0.0618714
0.0641496
0.066973
0.0704915
0.0748894
0.0803936
0.0869771
0.0934244
0.101934
0.107501
0.0824901
0.0243084
-0.21123
-0.712732
-1.80289
11.4658
-3.61538
-1.62282
-1.01239
-0.73446
-0.574527
-0.459029
-0.363521
-0.301628
-0.258324
-0.223296
-0.196461
-0.175002
-0.157751
-0.143724
-0.1322
-0.122666
-0.114725
-0.10808
-0.102501
-0.0978134
-0.0938788
-0.0905894
-0.0878605
-0.0856254
-0.0838327
-0.0824419
-0.0814235
-0.0807558
-0.0804254
0.0482682
0.0482862
0.048323
0.0483797
0.0484563
0.0485537
0.0486734
0.0488174
0.048989
0.0491932
0.0494375
0.0497333
0.0500977
0.0505534
0.0511331
0.0518857
0.0528786
0.0542165
0.0560522
0.0586436
0.0619281
0.0652792
0.0700202
0.0761134
0.0557801
0.00379008
-0.19229
-0.564451
-1.68455
-2.8804
-2.75235
-1.59282
-1.25453
-0.90407
-0.696377
-0.554741
-0.44842
-0.351404
-0.292872
-0.251653
-0.217966
-0.192301
-0.171697
-0.155133
-0.141656
-0.130573
-0.121397
-0.113743
-0.107329
-0.101939
-0.0974038
-0.0935923
-0.090402
-0.0877526
-0.0855806
-0.083837
-0.0824835
-0.0814919
-0.0808417
-0.08052
0.0440921
0.0440713
0.0440299
0.0439664
0.0438776
0.0437591
0.0436056
0.0434109
0.0431667
0.0428639
0.0424921
0.0420401
0.0414971
0.0408514
0.0400924
0.0392163
0.0382336
0.0371936
0.0361986
0.0355092
0.034966
0.0346921
0.0342163
0.0417779
0.0289
0.00466518
-0.108888
0.299832
0.367114
-1.37179
-0.81267
-1.02827
-0.863861
-0.705699
-0.589695
-0.490363
-0.407417
-0.320555
-0.271089
-0.235396
-0.205639
-0.182913
-0.164426
-0.149463
-0.137206
-0.127061
-0.118611
-0.111526
-0.105561
-0.100525
-0.0962715
-0.0926846
-0.0896731
-0.0871656
-0.0851054
-0.0834484
-0.0821603
-0.0812155
-0.0805956
-0.0802888
0.0399144
0.0398554
0.0397367
0.0395546
0.0393022
0.0389703
0.0385469
0.0380167
0.0373601
0.0365533
0.0355674
0.0343671
0.0329114
0.0311505
0.0290246
0.0264659
0.0234038
0.019799
0.0156457
0.0110793
0.00552489
-0.000488405
-0.0107703
-0.00818902
-0.0327917
-0.0565055
-0.223786
0.558267
2.2409
-0.574292
-0.591557
-0.580062
-0.543687
-0.49986
-0.454666
-0.398705
-0.344677
-0.275634
-0.239102
-0.211324
-0.187504
-0.169083
-0.153736
-0.141132
-0.130659
-0.121871
-0.114468
-0.108194
-0.102865
-0.0983303
-0.0944731
-0.0912007
-0.0884391
-0.0861295
-0.0842248
-0.0826882
-0.0814908
-0.080611
-0.0800331
-0.079747
0.0357731
0.0356775
0.0354848
0.0351892
0.0347803
0.0342442
0.0335628
0.0327118
0.0316608
0.0303718
0.0287971
0.0268775
0.0245401
0.0216946
0.0182273
0.0139944
0.00882298
0.00255161
-0.00502945
-0.0140513
-0.0259076
-0.0400649
-0.0644223
-0.074703
-0.127535
-0.176415
-0.338715
-0.153946
0.121219
-0.315354
-0.545732
-0.402771
-0.35255
-0.333798
-0.321196
-0.295739
-0.270006
-0.222342
-0.2006
-0.181953
-0.165289
-0.151993
-0.140469
-0.130741
-0.12245
-0.115322
-0.109202
-0.103926
-0.0993779
-0.0954595
-0.0920905
-0.0892057
-0.0867523
-0.0846869
-0.0829743
-0.0815865
-0.0805013
-0.0797018
-0.0791758
-0.0789154
0.0317048
0.0315753
0.0313141
0.0309135
0.03036
0.0296358
0.0287166
0.0275708
0.0261579
0.0244267
0.0223125
0.019733
0.0165842
0.012733
0.00801568
0.0022168
-0.00495595
-0.0138113
-0.0248368
-0.0384644
-0.0570863
-0.0801019
-0.118795
-0.14321
-0.217864
-0.2853
-0.338753
-0.134326
0.0159671
-0.0658717
-0.149016
-0.191145
-0.200607
-0.200019
-0.204135
-0.193407
-0.191939
-0.166299
-0.159393
-0.150024
-0.140933
-0.133018
-0.125622
-0.119017
-0.11311
-0.107809
-0.103109
-0.0989424
-0.0952694
-0.0920437
-0.0892256
-0.0867804
-0.0846774
-0.0828905
-0.0813976
-0.0801805
-0.079224
-0.078517
-0.0780508
-0.0778198
0.027744
0.0275841
0.0272618
0.0267678
0.0260862
0.0251955
0.0240669
0.0226624
0.0209333
0.0188171
0.0162345
0.0130841
0.00923407
0.00451581
-0.00127585
-0.00841883
-0.0173179
-0.0284266
-0.0425196
-0.0601786
-0.0846957
-0.114822
-0.163946
-0.197441
-0.275669
-0.34597
-0.324496
-0.0939624
0.0483856
-0.0128897
-0.0306587
-0.0537973
-0.0684668
-0.0852597
-0.100325
-0.100576
-0.117932
-0.11219
-0.118932
-0.118175
-0.116362
-0.113577
-0.110238
-0.106719
-0.103205
-0.0997536
-0.0965084
-0.0934885
-0.0907269
-0.0882286
-0.0859933
-0.0840158
-0.0822879
-0.0808006
-0.0795449
-0.0785126
-0.0776963
-0.0770899
-0.0766888
-0.07649
0.0239214
0.0237357
0.0233614
0.0227882
0.0219983
0.0209679
0.0196649
0.0180465
0.016058
0.0136285
0.0106671
0.00706088
0.00266147
-0.00272645
-0.00933926
-0.0175031
-0.027709
-0.0404879
-0.0568593
-0.0773081
-0.105801
-0.13978
-0.194024
-0.230373
-0.298574
-0.362497
-0.320753
-0.211988
0.0423814
-0.00867483
-0.00769248
0.0143792
0.0175894
0.0127353
-0.00625214
-0.0198718
-0.0527372
-0.0642648
-0.0823144
-0.0887438
-0.0933
-0.0949725
-0.0952974
-0.0945733
-0.0932734
-0.0915646
-0.0897141
-0.0878067
-0.0859398
-0.0841633
-0.0825119
-0.0810071
-0.0796611
-0.0784808
-0.0774698
-0.076629
-0.0759581
-0.0754567
-0.0751237
-0.0749586
0.0202638
0.0200573
0.0196414
0.019005
0.0181295
0.01699
0.015552
0.0137707
0.0115878
0.00892735
0.00569408
0.00177125
-0.00299697
-0.00881757
-0.0159517
-0.0247376
-0.0357098
-0.0493846
-0.0669697
-0.0886126
-0.118793
-0.153203
-0.207868
-0.242741
-0.296917
-0.352214
-0.302332
-0.27746
-0.0939606
-0.0225211
-0.024717
0.0327644
0.0951465
0.114058
0.0801269
0.0457729
-0.000136463
-0.0258316
-0.0519914
-0.0636012
-0.073117
-0.0782481
-0.0816
-0.0831957
-0.0837922
-0.0836082
-0.0830095
-0.0821202
-0.0810854
-0.0799895
-0.0788957
-0.0778473
-0.0768736
-0.0759954
-0.0752265
-0.0745763
-0.0740512
-0.0736551
-0.0733908
-0.0732596
0.0167932
0.0165713
0.0161249
0.0154424
0.0145056
0.0132893
0.0117584
0.00986821
0.00756037
0.00475905
0.00137201
-0.00271462
-0.00765786
-0.0136614
-0.0209891
-0.0299529
-0.0410918
-0.0548111
-0.0724647
-0.0936861
-0.123417
-0.155441
-0.207183
-0.23919
-0.282038
-0.330491
-0.280005
-0.26975
-0.22606
-0.0899708
-0.0586023
0.0409013
0.178664
0.222178
0.147265
0.0912165
0.0364976
0.00103292
-0.0294945
-0.0439819
-0.0567329
-0.0641308
-0.0697094
-0.0730371
-0.0751274
-0.0761792
-0.07663
-0.0766175
-0.0763172
-0.075833
-0.0752483
-0.0746224
-0.0739977
-0.0734052
-0.0728675
-0.0724008
-0.0720165
-0.0717228
-0.0715253
-0.0714272
0.0135262
0.0132945
0.0128287
0.0121178
0.0111441
0.00988339
0.00830143
0.00635671
0.00399503
0.00114526
-0.00227645
-0.00637873
-0.0113072
-0.0172434
-0.0244335
-0.0331309
-0.0438505
-0.0568052
-0.0734647
-0.0928345
-0.120297
-0.147865
-0.194363
-0.223734
-0.259976
-0.305503
-0.265532
-0.267002
-0.333736
-0.212451
-0.12246
-0.00111976
0.257175
0.28385
0.183422
0.110827
0.0549185
0.015682
-0.0153135
-0.0303334
-0.0445586
-0.0529828
-0.0599256
-0.0643561
-0.0675075
-0.0694791
-0.0707493
-0.0714446
-0.0717574
-0.0717974
-0.0716577
-0.0714074
-0.0710975
-0.0707661
-0.0704417
-0.0701456
-0.0698933
-0.0696961
-0.0695617
-0.069495
0.0104743
0.010238
0.00976366
0.0090411
0.00805403
0.00677964
0.00518716
0.00324104
0.000893423
-0.00191793
-0.00526735
-0.00925001
-0.0139876
-0.0196252
-0.0263759
-0.0344089
-0.0442018
-0.055706
-0.070477
-0.0868305
-0.110518
-0.132199
-0.171337
-0.198625
-0.231318
-0.276613
-0.253013
-0.27224
-0.414889
-0.381594
-0.174212
-0.0193295
0.322289
0.243464
0.17109
0.103616
0.0557744
0.0193208
-0.00878547
-0.0223038
-0.0364401
-0.0448056
-0.0523018
-0.0572377
-0.0610307
-0.0636107
-0.0654712
-0.0667002
-0.0674947
-0.0679609
-0.0681935
-0.0682641
-0.0682277
-0.0681264
-0.0679925
-0.0678503
-0.0677179
-0.0676089
-0.0675325
-0.0674946
0.00764354
0.00740768
0.00693474
0.00621577
0.00523622
0.00397655
0.00241166
0.000512636
-0.00176167
-0.00446224
-0.0076488
-0.0113952
-0.015793
-0.0209409
-0.0270092
-0.0340638
-0.0425402
-0.0520822
-0.0642951
-0.0767878
-0.0955269
-0.110274
-0.139724
-0.164538
-0.193835
-0.240575
-0.237906
-0.254056
-0.396866
-0.496528
-0.132437
0.241238
0.332568
0.137949
0.116507
0.0766426
0.0438095
0.0150505
-0.0081512
-0.0188516
-0.0317555
-0.0392636
-0.0466876
-0.0516394
-0.0557053
-0.0586028
-0.0608381
-0.062436
-0.0635839
-0.0643768
-0.0649058
-0.0652393
-0.0654318
-0.0655266
-0.0655571
-0.0655493
-0.0655228
-0.0654919
-0.0654672
-0.0654552
0.00503525
0.00480403
0.00434112
0.00363884
0.00268519
0.0014655
-3.93514e-05
-0.00185283
-0.00400703
-0.00653921
-0.00949112
-0.0129114
-0.0168602
-0.021384
-0.0266055
-0.0324745
-0.0393904
-0.0466713
-0.0559229
-0.0640826
-0.0770879
-0.0842381
-0.101793
-0.12189
-0.144179
-0.195355
-0.234409
-0.248727
-0.348992
-0.460252
0.0596977
0.414066
0.149171
0.0277923
0.0495355
0.0429028
0.0260681
0.00688036
-0.01103
-0.0185196
-0.0296107
-0.0358103
-0.0427491
-0.0473751
-0.0514384
-0.0544237
-0.0568453
-0.0586637
-0.0600486
-0.0610752
-0.0618269
-0.0623657
-0.0627422
-0.062998
-0.0631658
-0.0632718
-0.0633356
-0.0633723
-0.0633923
-0.0634027
0.00264631
0.00242319
0.00197711
0.0013023
0.000390147
-0.000769354
-0.00219056
-0.00389056
-0.00589038
-0.00821297
-0.0108815
-0.0139194
-0.0173562