/*--------------------------------*- C++ -*----------------------------------*\
  =========                 |
  \\      /  F ield         | OpenFOAM: The Open Source CFD Toolbox
   \\    /   O peration     | Website:  https://openfoam.org
    \\  /    A nd           | Version:  12
     \\/     M anipulation  |
\*---------------------------------------------------------------------------*/
FoamFile
{
    format      ascii;
    class       surfaceScalarField;
    location    "340";
    object      phi;
}
// * * * * * * * * * * * * * * * * * * * * * * * * * * * * * * * * * * * * * //

dimensions      [0 3 -1 0 0 0 0];

internalField   nonuniform List<scalar> 
32440
(
-1.49777e-07
0.0399882
1.7005e-06
0.0399882
-4.45499e-07
0.0399901
1.41482e-06
0.0399881
-7.16227e-07
0.0399901
1.16386e-06
0.0399981
1.05749e-06
0.0400101
9.67436e-07
0.0400101
2.89618e-06
0.0400101
4.84616e-06
0.04001
6.81934e-06
0.04001
2.81828e-06
0.040004
2.84677e-06
0.04
2.90585e-06
0.0399999
2.99743e-06
0.0399999
3.12281e-06
0.0399999
3.28281e-06
0.0399998
3.47735e-06
0.0399998
3.70566e-06
0.0399998
3.96604e-06
0.0399997
4.25585e-06
0.0399997
4.5717e-06
0.0399997
4.90882e-06
0.0399997
5.26172e-06
0.0399996
5.62443e-06
0.0399996
5.99028e-06
0.0399996
6.35254e-06
0.0399996
6.70268e-06
0.0399996
5.43607e-06
0.0400013
8.45467e-08
0.0400054
-1.17437e-06
0.0400013
-1.13184e-06
0.04
-9.29528e-07
0.0399998
-7.70352e-07
0.0399998
3.44179e-07
0.0399989
4.13955e-07
0.0399999
4.39383e-07
0.04
4.22679e-07
0.04
3.66478e-07
0.0400001
2.74256e-07
0.0400001
1.5005e-07
0.0400001
-1.96957e-09
0.0400002
-1.7746e-07
0.0400002
-3.72123e-07
0.0400002
-5.8235e-07
0.0400002
-8.04152e-07
0.0400002
-1.03408e-06
0.0400002
-1.26839e-06
0.0400002
-1.50608e-06
0.0400002
-1.74392e-06
0.0400002
-1.98065e-06
0.0400002
-4.21504e-06
0.0400022
-1.04454e-05
0.0400062
-4.67456e-06
0.0400062
-9.01547e-07
0.0400082
-1.12525e-06
0.0400102
6.54441e-07
0.0399982
4.3661e-07
0.0399882
2.20203e-07
0.0399902
0.0399882
3.91007e-08
0.0399881
8.47526e-08
0.0399881
1.57076e-07
0.0399901
2.6944e-07
0.039988
2.4349e-06
0.039988
4.66682e-06
0.0399959
6.97796e-06
0.0400078
7.38099e-06
0.0400097
9.88724e-06
0.0400076
1.45079e-05
0.0400054
1.92507e-05
0.0400053
1.21243e-05
0.0400111
9.14181e-06
0.040003
1.03056e-05
0.0399988
1.16188e-05
0.0399986
1.30809e-05
0.0399984
1.46884e-05
0.0399982
1.64343e-05
0.0399981
1.83074e-05
0.0399979
2.0293e-05
0.0399978
2.23699e-05
0.0399976
2.45178e-05
0.0399975
2.67071e-05
0.0399975
2.89072e-05
0.0399974
3.10847e-05
0.0399975
3.34044e-05
0.0399973
3.543e-05
0.0399976
3.69269e-05
0.0399982
3.72601e-05
0.0400009
3.3094e-05
0.0400095
3.29191e-05
0.0400014
3.39937e-05
0.0399989
3.48057e-05
0.039999
3.53443e-05
0.0399993
3.44042e-05
0.0399998
3.43907e-05
0.0399999
3.41036e-05
0.0400003
3.35588e-05
0.0400006
3.27715e-05
0.0400008
3.17617e-05
0.0400011
3.0551e-05
0.0400013
2.91629e-05
0.0400015
2.76211e-05
0.0400017
2.59517e-05
0.0400019
2.61722e-05
0.04
2.43062e-05
0.0400021
2.23735e-05
0.0400022
2.039e-05
0.0400022
1.83725e-05
0.0400023
1.63349e-05
0.0400023
1.22835e-05
0.0400043
6.23173e-06
0.0400083
2.18316e-06
0.0400103
2.1345e-06
0.0400063
2.09278e-06
0.0400083
2.06056e-06
0.0400103
6.03817e-06
0.0399942
2.02398e-06
0.0399922
2.01594e-06
0.0399902
0.0399902
7.5205e-07
0.0399874
1.52348e-06
0.0399873
4.35019e-06
0.0399872
5.25858e-06
0.0399871
4.27475e-06
0.039989
1.14242e-05
0.0399887
1.27339e-05
0.0400065
1.62254e-05
0.0400062
1.99227e-05
0.0400039
2.38439e-05
0.0400015
2.8008e-05
0.0400011
2.24217e-05
0.0400167
2.31125e-05
0.0400023
2.60837e-05
0.0399958
2.93323e-05
0.0399953
3.28578e-05
0.0399949
3.6648e-05
0.0399944
4.0685e-05
0.039994
4.89411e-05
0.0399896
4.93831e-05
0.0399973
5.39676e-05
0.039993
5.86473e-05
0.0399929
6.33629e-05
0.0399928
6.80502e-05
0.0399928
7.26409e-05
0.0399929
7.70634e-05
0.0399929
8.12453e-05
0.0399934
8.51102e-05
0.0399943
8.70009e-05
0.039999
8.43655e-05
0.0400122
8.54147e-05
0.0400004
8.72344e-05
0.0399971
8.86845e-05
0.0399975
8.95453e-05
0.0399984
9.08093e-05
0.0399986
9.04769e-05
0.0400003
8.95708e-05
0.0400012
8.81196e-05
0.040002
8.61454e-05
0.0400028
8.36959e-05
0.0400035
8.08165e-05
0.0400042
7.75559e-05
0.0400048
7.39685e-05
0.0400053
7.00901e-05
0.0400057
6.39791e-05
0.0400061
5.96764e-05
0.0400064
5.52271e-05
0.0400066
5.26596e-05
0.0400048
4.80085e-05
0.0400069
4.13018e-05
0.040009
3.45622e-05
0.040011
1.98203e-05
0.040023
2.10577e-05
0.040009
1.82974e-05
0.040009
1.55489e-05
0.040011
1.48146e-05
0.040011
1.40971e-05
0.039995
9.39272e-06
0.0399969
4.69934e-06
0.0399949
0.0399949
1.50431e-06
0.0399859
3.04452e-06
0.0399858
4.6671e-06
0.0399856
6.41167e-06
0.0399854
1.03171e-05
0.039985
1.24221e-05
0.0399866
2.07638e-05
0.0399981
2.53794e-05
0.0400016
3.02983e-05
0.0399989
3.35546e-05
0.0399983
3.71678e-05
0.0399975
3.71571e-05
0.0400167
3.75554e-05
0.0400019
4.03624e-05
0.039993
4.55852e-05
0.0399901
5.32079e-05
0.0399873
6.12205e-05
0.0399864
7.75965e-05
0.0399776
9.02952e-05
0.0399769
8.523e-05
0.0400024
8.63814e-05
0.0399919
9.36543e-05
0.0399856
0.000100961
0.0399855
0.000108197
0.0399855
0.000115269
0.0399858
0.000122061
0.0399861
0.000128462
0.039987
0.00013417
0.0399886
0.000138063
0.0399951
0.000136994
0.0400132
0.000139301
0.0399981
0.000142095
0.0399943
0.000144391
0.0399952
0.000145568
0.0399973
0.000144615
0.0399995
0.000143942
0.0400009
0.000142374
0.0400027
0.000139955
0.0400044
0.000138736
0.040004
0.000134781
0.0400075
0.000130163
0.0400088
0.000124964
0.04001
0.000119241
0.040011
0.000113088
0.0400119
0.000106579
0.0400126
9.97681e-05
0.0400132
9.27213e-05
0.0400137
8.35068e-05
0.040014
7.81602e-05
0.0400123
7.07268e-05
0.0400164
5.32484e-05
0.0400285
4.5751e-05
0.0400305
3.82246e-05
0.0400166
3.27052e-05
0.0400146
2.72049e-05
0.0400165
2.77295e-05
0.0400105
2.0274e-05
0.0400024
1.48391e-05
0.0400024
7.41913e-06
0.0400023
0.0400024
2.0776e-06
0.0399838
4.21034e-06
0.0399837
6.45142e-06
0.0399834
8.85299e-06
0.039983
1.14683e-05
0.0399824
1.63469e-05
0.0399818
2.75388e-05
0.039987
3.10924e-05
0.039998
3.50518e-05
0.039995
4.14569e-05
0.0399918
4.8343e-05
0.0399906
5.37345e-05
0.0400113
5.1659e-05
0.0400039
5.61387e-05
0.0399885
6.31701e-05
0.0399831
7.07479e-05
0.0399797
8.48456e-05
0.0399723
0.000107447
0.039955
0.000110461
0.0399739
0.000109802
0.040003
0.000115441
0.0399863
0.000125245
0.0399758
0.000135104
0.0399756
0.000144885
0.0399757
0.000154434
0.0399762
0.000163606
0.0399769
0.000172251
0.0399784
0.000180209
0.0399806
0.000185769
0.0399896
0.000186284
0.0400127
0.000189928
0.0399944
0.000193919
0.0399903
0.000196508
0.0399927
0.000198258
0.0399955
0.000199333
0.0399984
0.00019836
0.0400019
0.000196174
0.0400049
0.000192825
0.0400078
0.000186417
0.0400104
0.00018101
0.0400129
0.000174713
0.0400151
0.000169633
0.0400151
0.000161869
0.0400188
0.000153535
0.0400202
0.000144707
0.0400214
0.000135499
0.0400224
0.000125996
0.0400232
0.000116251
0.0400237
0.000104354
0.0400242
8.63485e-05
0.0400344
6.43157e-05
0.0400505
6.61997e-05
0.0400286
5.80816e-05
0.0400247
4.79835e-05
0.0400247
4.1914e-05
0.0400226
3.98787e-05
0.0400125
2.98764e-05
0.0400124
1.98999e-05
0.0400123
9.94438e-06
0.0400123
0.0400123
2.44983e-06
0.0399813
6.97559e-06
0.0399791
9.63585e-06
0.0399807
1.24959e-05
0.0399801
1.56209e-05
0.0399793
1.90747e-05
0.0399783
2.69191e-05
0.0399791
3.72152e-05
0.0399877
4.2021e-05
0.0399902
4.73868e-05
0.0399865
5.5365e-05
0.0399826
7.9992e-05
0.0399867
6.92653e-05
0.0400147
6.92573e-05
0.0399885
7.5954e-05
0.0399764
8.73491e-05
0.0399683
0.000105426
0.0399543
0.000120139
0.0399403
0.000127392
0.0399667
0.000131117
0.0399993
0.000141229
0.0399761
0.000153576
0.0399634
0.000166011
0.0399632
0.000178364
0.0399634
0.000190441
0.0399642
0.000202069
0.0399653
0.000213243
0.0399672
0.00022298
0.0399709
0.000230664
0.0399819
0.000232884
0.0400105
0.000237938
0.0399894
0.000242831
0.0399854
0.000246581
0.0399889
0.000248327
0.0399938
0.000247677
0.0399991
0.000246452
0.0400031
0.000245675
0.0400057
0.000241439
0.040012
0.000235846
0.040016
0.000229007
0.0400197
0.000221067
0.0400231
0.000210124
0.040026
0.000200361
0.0400286
0.00019187
0.0400287
0.000180812
0.0400325
0.000169277
0.0400339
0.000157382
0.0400351
0.000145218
0.0400359
0.000130867
0.0400385
0.000108417
0.0400569
9.79158e-05
0.040061
8.73389e-05
0.0400392
7.47789e-05
0.0400372
6.42547e-05
0.0400352
6.17846e-05
0.0400251
4.93516e-05
0.0400249
3.69646e-05
0.0400248
2.46163e-05
0.0400247
1.22963e-05
0.0400246
0.0400246
2.62293e-06
0.0399787
5.34436e-06
0.0399764
8.22607e-06
0.0399778
1.13471e-05
0.039977
1.47858e-05
0.0399759
1.86197e-05
0.0399745
2.4924e-05
0.0399728
3.77698e-05
0.0399749
4.52349e-05
0.0399827
5.338e-05
0.0399783
6.02683e-05
0.0399758
7.19552e-05
0.039975
8.2451e-05
0.0400042
7.78207e-05
0.0399932
8.80665e-05
0.0399661
0.000105182
0.0399512
0.000137168
0.0399223
0.000133937
0.0399436
0.000143408
0.0399572
0.000151507
0.0399912
0.000164119
0.0399635
0.000179061
0.0399485
0.000194155
0.0399481
0.00020918
0.0399484
0.000223941
0.0399494
0.000238365
0.0399509
0.000251618
0.039954
0.00026404
0.0399585
0.000273628
0.0399723
0.000277695
0.0400064
0.000284251
0.0399828
0.000290555
0.0399791
0.000294747
0.0399847
0.000297381
0.0399911
0.000298641
0.0399978
0.000297155
0.0400046
0.000291787
0.0400111
0.000286639
0.0400172
0.000279844
0.0400228
0.000273549
0.040026
0.000263918
0.0400327
0.000253118
0.0400368
0.000241321
0.0400403
0.000226703
0.0400433
0.000215388
0.0400438
0.000201559
0.0400478
0.000187315
0.0400493
0.000172777
0.0400504
0.000146053
0.0400652
0.000115283
0.0400876
0.000118352
0.040058
0.000105414
0.0400522
9.25304e-05
0.0400501
8.57073e-05
0.040042
7.09434e-05
0.0400398
5.62476e-05
0.0400396
4.16165e-05
0.0400394
2.70387e-05
0.0400393
1.45018e-05
0.0400372
0.0400391
4.59475e-06
0.0399741
5.31225e-06
0.0399757
8.21583e-06
0.0399749
1.3398e-05
0.0399718
1.69525e-05
0.0399723
2.09703e-05
0.0399705
2.55403e-05
0.0399682
3.47523e-05
0.0399657
4.66898e-05
0.0399708
5.34383e-05
0.0399716
6.10679e-05
0.0399681
7.36596e-05
0.0399624
0.000107255
0.0399706
9.58391e-05
0.0400046
9.35349e-05
0.0399685
0.000110283
0.0399344
0.000132099
0.0399005
0.000144896
0.0399308
0.000158615
0.0399435
0.000169137
0.0399807
0.000184302
0.0399484
0.000201954
0.0399308
0.000219832
0.0399302
0.000237725
0.0399305
0.000255325
0.0399318
0.000272331
0.0399339
0.000288467
0.0399378
0.000303431
0.0399435
0.000315108
0.0399606
0.000321357
0.0400002
0.000329627
0.0399746
0.000337019
0.0399717
0.000342344
0.0399794
0.00034533
0.0399881
0.000346925
0.0399962
0.000345167
0.0400064
0.000341195
0.040015
0.000335087
0.0400233
0.000327026
0.0400309
0.000315197
0.0400379
0.000305814
0.0400421
0.000293091
0.0400495
0.000279195
0.0400542
0.000264373
0.0400582
0.00024881
0.0400594
0.000232649
0.0400639
0.000216044
0.0400659
0.000195167
0.0400713
0.000166106
0.0400943
0.000150981
0.0401028
0.000137739
0.0400712
0.000122546
0.0400674
0.000115433
0.0400572
0.000100408
0.040057
8.34715e-05
0.0400568
6.66319e-05
0.0400565
4.9881e-05
0.0400562
3.32021e-05
0.040056
1.65751e-05
0.0400538
0.0400557
2.36826e-06
0.0399717
4.88111e-06
0.0399732
9.60665e-06
0.0399702
1.06539e-05
0.0399708
1.61259e-05
0.0399668
2.01319e-05
0.0399664
2.47763e-05
0.0399636
3.0163e-05
0.0399603
4.43868e-05
0.0399566
5.35587e-05
0.0399624
6.17677e-05
0.0399599
7.10939e-05
0.0399531
8.76148e-05
0.0399541
9.13585e-05
0.0400008
0.000102388
0.0399574
0.000126708
0.0399101
0.000138315
0.0398888
0.000153151
0.0399159
0.000171133
0.0399255
0.00018414
0.0399677
0.000202008
0.0399305
0.000222506
0.0399103
0.000243381
0.0399093
0.000264335
0.0399095
0.000285018
0.0399111
0.000305114
0.0399138
0.000324208
0.0399187
0.000341724
0.039926
0.000356342
0.039946
0.000364665
0.0399918
0.000374791
0.0399644
0.000383668
0.0399628
0.00039023
0.0399728
0.000393768
0.0399846
0.000393327
0.0399967
0.000391298
0.0400084
0.00038662
0.0400197
0.000381457
0.0400284
0.000372019
0.0400403
0.000360557
0.0400493
0.000345268
0.0400574
0.000332474
0.0400623
0.000316415
0.0400703
0.000299303
0.0400753
0.000279373
0.0400793
0.000262823
0.0400805
0.000241866
0.0400869
0.000208605
0.0401046
0.000169328
0.0401336
0.000175782
0.0400963
0.000158255
0.0400887
0.000148877
0.0400767
0.000129589
0.0400765
0.000110436
0.0400762
9.14223e-05
0.0400758
7.2543e-05
0.0400753
5.57879e-05
0.0400729
3.71241e-05
0.0400746
1.65236e-05
0.0400744
0.0400722
1.94267e-06
0.0399698
6.05157e-06
0.0399691
6.40294e-06
0.0399699
1.11136e-05
0.0399661
1.23088e-05
0.0399656
1.6107e-05
0.0399626
2.26291e-05
0.0399571
2.79994e-05
0.0399549
3.4336e-05
0.0399502
5.17436e-05
0.039945
6.23553e-05
0.0399493
7.02696e-05
0.0399452
8.35744e-05
0.0399407
0.000106339
0.0399781
0.000116625
0.0399471
0.00015246
0.0398743
0.000147845
0.0398935
0.000162716
0.0399011
0.000179035
0.0399092
0.000198642
0.0399481
0.000219345
0.0399098
0.000240895
0.0398888
0.000265019
0.0398852
0.000289319
0.0398852
0.00031345
0.039887
0.000336918
0.0398903
0.000359515
0.0398961
0.000380189
0.0399053
0.000397447
0.0399288
0.000408275
0.039981
0.000420708
0.039952
0.000431253
0.0399523
0.000438564
0.0399655
0.000442962
0.0399802
0.000444637
0.039995
0.000442258
0.0400108
0.00043678
0.0400252
0.000426411
0.0400388
0.000417427
0.0400493
0.000404112
0.0400626
0.000388798
0.0400727
0.000369759
0.0400814
0.00035331
0.0400867
0.000333764
0.0400948
0.000313367
0.0400997
0.000290362
0.0401035
0.000266926
0.0401103
0.000235272
0.0401362
0.000213574
0.0401553
0.000197731
0.0401122
0.000186032
0.0401004
0.00016446
0.0400983
0.000143064
0.0400979
0.000121862
0.0400974
0.000100855
0.0400968
8.20346e-05
0.0400942
5.93622e-05
0.0400956
4.08251e-05
0.0400932
2.03692e-05
0.0400948
0.0400926
1.31762e-06
0.0399685
2.8242e-06
0.0399676
6.59755e-06
0.0399661
6.7752e-06
0.0399659
1.14881e-05
0.0399609
1.48788e-05
0.0399593
1.90833e-05
0.0399529
2.42414e-05
0.0399498
3.04922e-05
0.039944
3.79731e-05
0.0399375
5.68041e-05
0.0399305
6.91373e-05
0.0399329
8.31073e-05
0.0399268
0.000132768
0.0399284
0.000124183
0.0399557
0.000133479
0.039865
0.000146596
0.0398803
0.00016556
0.0398821
0.000190278
0.0398845
0.000218624
0.0399197
0.000232379
0.0398961
0.000257244
0.0398639
0.000284889
0.0398575
0.000312939
0.0398572
0.000340858
0.0398591
0.000368187
0.039863
0.000394324
0.03987
0.000418506
0.0398811
0.000439235
0.039908
0.000452958
0.0399673
0.000467584
0.0399374
0.000479937
0.0399399
0.000488951
0.0399565
0.000493634
0.0399755
0.000493581
0.039995
0.000490772
0.0400136
0.000486332
0.0400296
0.000476558
0.0400486
0.000461785
0.0400641
0.00044839
0.040076
0.000430744
0.0400903
0.000411233
0.0401009
0.000390241
0.0401077
0.000368064
0.040117
0.000345029
0.0401227
0.000317404
0.0401311
0.000273422
0.0401543
0.000237356
0.0401723
0.000239148
0.0401535
0.000225013
0.0401263
0.000203066
0.0401224
0.000179352
0.040122
0.000155896
0.0401214
0.000134717
0.0401186
0.000111787
0.0401197
8.71025e-05
0.0401189
6.6629e-05
0.0401161
4.23044e-05
0.0401175
2.21028e-05
0.040115
0.0401147
4.89783e-07
0.039968
1.18966e-06
0.0399669
2.18352e-06
0.0399651
5.61846e-06
0.0399624
5.64904e-06
0.0399609
1.04231e-05
0.0399545
1.2104e-05
0.0399512
1.88415e-05
0.039943
2.48045e-05
0.039938
3.21501e-05
0.0399302
4.10371e-05
0.0399216
6.16022e-05
0.0399123
7.60303e-05
0.0399124
9.84609e-05
0.039906
0.000122936
0.0399313
0.000125595
0.0398623
0.000144447
0.0398615
0.000169514
0.039857
0.000200743
0.0398533
0.000255968
0.0398645
0.000256958
0.0398951
0.000273471
0.0398474
0.000303064
0.039828
0.000335261
0.039825
0.000367505
0.0398268
0.000399368
0.0398311
0.000429558
0.0398398
0.000458052
0.0398526
0.000482325
0.0398838
0.000499299
0.0399503
0.00051666
0.03992
0.000531364
0.0399252
0.000541346
0.0399465
0.000547177
0.0399697
0.000548982
0.0399932
0.000545538
0.040017
0.000535905
0.0400393
0.000526474
0.040058
0.000511609
0.0400789
0.000491796
0.0400958
0.00047352
0.0401086
0.000451227
0.0401232
0.000425352
0.0401336
0.000402309
0.04014
0.000374442
0.0401506
0.000336023
0.0401695
0.00028547
0.0402048
0.000276709
0.0401811
0.000270017
0.0401602
0.000245551
0.0401508
0.000219378
0.0401486
0.000193534
0.0401479
0.000168074
0.0401468
0.000142968
0.0401437
0.000118205
0.0401445
9.57594e-05
0.0401413
7.15672e-05
0.0401403
4.75766e-05
0.0401415
2.3726e-05
0.0401389
0.0401384
-5.46151e-07
0.0399685
-8.6223e-07
0.0399672
-8.59635e-07
0.0399651
-3.76648e-07
0.039962
2.75057e-06
0.0399578
4.69432e-06
0.0399525
7.62853e-06
0.0399482
1.17313e-05
0.0399389
1.71861e-05
0.0399326
2.41802e-05
0.0399232
3.4895e-05
0.0399109
4.55281e-05
0.0399017
6.62377e-05
0.0398916
8.5257e-05
0.039887
0.00013667
0.0398798
0.000130597
0.0398684
0.000143133
0.039849
0.000166317
0.0398339
0.00019613
0.0398234
0.00023641
0.0398242
0.000254966
0.0398765
0.000283457
0.0398189
0.000319411
0.039792
0.000356277
0.0397881
0.000393442
0.0397897
0.000430076
0.0397945
0.000465442
0.0398044
0.000498407
0.0398197
0.000527222
0.0398549
0.000548043
0.0399295
0.00056859
0.0398995
0.000585464
0.0399083
0.000597449
0.0399345
0.00060376
0.0399634
0.000603521
0.0399935
0.000601247
0.0400193
0.000592118
0.0400484
0.000576598
0.0400735
0.000561241
0.0400943
0.000540609
0.0401165
0.000515283
0.0401339
0.00049184
0.0401466
0.0004648
0.0401607
0.000436583
0.0401682
0.000401611
0.0401856
0.000360267
0.0402109
0.000330774
0.0402343
0.000319377
0.0401925
0.000292157
0.0401874
0.000263316
0.0401796
0.000234911
0.040177
0.000206984
0.0401758
0.000181559
0.0401723
0.000152592
0.0401726
0.000128083
0.040169
9.99471e-05
0.0401694
7.41467e-05
0.0401661
5.06066e-05
0.040165
2.52301e-05
0.0401643
0.0401636
-1.79698e-06
0.0399703
-1.34606e-06
0.0399667
-2.55362e-06
0.0399663
-3.24582e-06
0.0399626
-3.24361e-06
0.0399578
-2.36179e-06
0.0399517
-4.072e-07
0.0399463
2.81984e-06
0.0399357
7.52691e-06
0.0399278
1.59257e-05
0.0399148
2.22472e-05
0.0399046
3.27009e-05
0.0398912
4.75059e-05
0.0398768
7.28663e-05
0.0398616
9.50526e-05
0.0398577
0.000112145
0.0398513
0.000134314
0.0398268
0.000161621
0.0398066
0.000192073
0.039793
0.00022561
0.0397907
0.000256012
0.0398461
0.00029288
0.0397821
0.000333723
0.0397512
0.000375921
0.0397459
0.00041867
0.0397469
0.000461121
0.039752
0.000502385
0.0397632
0.000540919
0.0397811
0.000574598
0.0398213
0.000599927
0.0399042
0.000624117
0.0398753
0.000643904
0.0398886
0.000657472
0.039921
0.000664549
0.0399563
0.000666036
0.039992
0.00065862
0.0400267
0.000649581
0.0400574
0.000633524
0.0400896
0.000611138
0.0401167
0.000589167
0.0401384
0.000562336
0.0401608
0.000533267
0.0401757
0.000502598
0.0401913
0.000464855
0.040206
0.000408509
0.0402419
0.000362069
0.0402573
0.000365548
0.0402308
0.000341243
0.0402168
0.000309426
0.0402192
0.000280173
0.0402089
0.000249558
0.0402076
0.000219575
0.0402058
0.000190236
0.0402016
0.000161504
0.0402014
0.000133329
0.0401972
0.000107648
0.0401951
8.0358e-05
0.0401934
5.33732e-05
0.040192
2.66026e-05
0.040191
0.0401902
-3.26981e-06
0.0399736
-6.27392e-06
0.0399697
-8.91815e-06
0.0399689
-1.10171e-05
0.0399647
-1.23791e-05
0.0399591
-1.28039e-05
0.0399521
-1.00833e-05
0.0399436
-7.9915e-06
0.0399336
-2.30086e-06
0.0399222
1.24282e-06
0.0399112
1.08816e-05
0.0398949
2.08891e-05
0.0398812
3.35297e-05
0.0398642
4.90692e-05
0.0398461
7.57435e-05
0.039831
9.78429e-05
0.0398292
0.000123512
0.0398011
0.000152917
0.0397771
0.000186104
0.0397598
0.000223036
0.0397538
0.000259599
0.0398095
0.000299308
0.0397424
0.000345641
0.0397048
0.0003939
0.0396977
0.00044316
0.0396977
0.000492298
0.0397029
0.000540164
0.0397153
0.000585358
0.0397359
0.000625118
0.0397815
0.000655674
0.0398736
0.000684168
0.0398468
0.00070699
0.0398657
0.000722431
0.0399055
0.000730242
0.0399485
0.000731436
0.0399908
0.000724457
0.0400337
0.000708945
0.0400729
0.000691717
0.0401068
0.000667655
0.0401407
0.000639711
0.0401664
0.000608664
0.0401918
0.000575454
0.0402089
0.000538689
0.0402281
0.000485027
0.0402597
0.000421163
0.0403058
0.000415204
0.0402633
0.000395365
0.0402507
0.000360166
0.040252
0.000329697
0.0402497
0.00029399
0.0402446
0.000263154
0.0402384
0.00023118
0.0402377
0.000200012
0.0402328
0.000171618
0.0402298
0.000139885
0.0402289
0.000110755
0.0402242
8.21111e-05
0.040222
5.58499e-05
0.0402183
2.78265e-05
0.0402191
0.0402181
-2.97184e-06
0.0399766
-9.66253e-06
0.0399764
-1.39796e-05
0.0399733
-1.57289e-05
0.0399665
-1.87061e-05
0.0399621
-2.06974e-05
0.0399541
-2.14793e-05
0.0399444
-2.08053e-05
0.0399329
-1.84186e-05
0.0399198
-1.20481e-05
0.0399049
-7.38553e-06
0.0398903
1.86435e-06
0.0398719
1.60176e-05
0.03985
3.14167e-05
0.0398307
5.23835e-05
0.03981
8.12219e-05
0.0398004
0.000106239
0.0397761
0.000139619
0.0397438
0.000175546
0.0397239
0.000218051
0.0397113
0.000274993
0.0397526
0.000306114
0.0397112
0.000354645
0.0396563
0.000409846
0.0396425
0.000466647
0.0396409
0.000523721
0.0396458
0.00057953
0.0396595
0.000632348
0.0396831
0.00067944
0.0397344
0.000716371
0.0398367
0.000749961
0.0398132
0.000776432
0.0398393
0.000794258
0.0398877
0.000802637
0.0399401
0.000800771
0.0399927
0.000793643
0.0400408
0.000776927
0.0400896
0.000753695
0.04013
0.00072514
0.0401693
0.000692345
0.0401992
0.000656424
0.0402277
0.00061634
0.040249
0.000572951
0.0402715
0.000516971
0.0403156
0.000487068
0.0403357
0.000455185
0.0402952
0.00041811
0.0402878
0.000378007
0.0402921
0.000344694
0.040283
0.000310563
0.0402787
0.000275547
0.0402734
0.000241627
0.0402717
0.00020873
0.0402657
0.000176761
0.0402617
0.000147653
0.040258
0.000117233
0.0402547
8.73904e-05
0.0402519
5.59756e-05
0.0402497
2.88814e-05
0.0402462
0.0402469
-6.90673e-06
0.0399835
-1.35224e-05
0.039983
-1.77556e-05
0.0399775
-2.54037e-05
0.0399741
-2.82591e-05
0.039965
-3.20941e-05
0.0399579
-3.46688e-05
0.0399469
-3.572e-05
0.039934
-3.49649e-05
0.039919
-3.20943e-05
0.039902
-2.47855e-05
0.0398829
-1.66634e-05
0.0398638
-5.35546e-06
0.0398387
9.53881e-06
0.0398158
2.84374e-05
0.0397911
5.1767e-05
0.039777
8.78054e-05
0.0397401
0.000119028
0.0397125
0.000161612
0.0396813
0.000213774
0.0396591
0.000305293
0.0396611
0.000322354
0.0396942
0.000361989
0.0396167
0.000423182
0.0395813
0.000488793
0.0395752
0.000555253
0.0395794
0.000620646
0.0395941
0.000682937
0.0396208
0.000738545
0.0396788
0.000783045
0.0397922
0.000822769
0.0397735
0.000853701
0.0398083
0.000873747
0.0398677
0.000882555
0.0399313
0.0008813
0.0399939
0.000867208
0.0400549
0.000848293
0.0401086
0.000818012
0.0401603
0.000785821
0.0402015
0.000745142
0.0402399
0.000705461
0.0402674
0.000655765
0.0402987
0.000579111
0.0403481
0.000524503
0.0403702
0.000515846
0.0403443
0.000484028
0.040327
0.000441362
0.0403304
0.000400094
0.0403333
0.000360058
0.040323
0.000323546
0.0403152
0.000284448
0.0403125
0.000250713
0.0403054
0.000216215
0.0403002
0.000182848
0.0402951
0.000150471
0.0402904
0.000118934
0.0402862
9.00918e-05
0.0402807
5.97465e-05
0.04028
2.97458e-05
0.0402762
0.0402767
-9.07944e-06
0.0399926
-1.78603e-05
0.0399918
-2.62561e-05
0.0399859
-3.20646e-05
0.03998
-4.10677e-05
0.039974
-4.50359e-05
0.0399619
-4.97132e-05
0.0399516
-5.28212e-05
0.0399371
-5.40533e-05
0.0399202
-5.30707e-05
0.039901
-4.95009e-05
0.0398794
-4.09381e-05
0.0398553
-3.29166e-05
0.0398307
-1.69886e-05
0.0397998
1.39253e-06
0.0397727
2.4764e-05
0.0397537
5.35722e-05
0.0397113
9.6262e-05
0.0396699
0.000137397
0.0396402
0.000187232
0.0396093
0.000255866
0.0395925
0.00030333
0.0396467
0.000360777
0.0395592
0.000433177
0.0395089
0.000509148
0.0394993
0.000586713
0.0395018
0.000663615
0.0395172
0.000737115
0.0395473
0.000803514
0.0396124
0.000857239
0.0397385
0.000904283
0.0397264
0.00094039
0.0397722
0.000962803
0.0398452
0.000971941
0.0399222
0.000968531
0.0399973
0.000952357
0.0400711
0.00092595
0.040135
0.000891093
0.0401952
0.000849914
0.0402427
0.000804243
0.0402855
0.000751622
0.04032
0.000683405
0.0403669
0.00060109
0.0404304
0.000582787
0.0403885
0.000553173
0.040374
0.000507143
0.040373
0.000458852
0.0403787
0.000416276
0.0403759
0.000375581
0.0403637
0.000332715
0.0403581
0.000295644
0.0403496
0.000258205
0.0403428
0.000222271
0.0403361
0.000187679
0.0403297
0.000156267
0.0403218
0.000123816
0.0403187
9.01343e-05
0.0403144
6.10748e-05
0.0403091
2.83776e-05
0.0403089
0.0403051
-1.14888e-05
0.040004
-2.06754e-05
0.040001
-3.34853e-05
0.0399987
-4.37148e-05
0.0399902
-5.11483e-05
0.0399814
-6.15472e-05
0.0399723
-6.66505e-05
0.0399567
-7.21736e-05
0.0399426
-7.37827e-05
0.0399219
-7.51086e-05
0.0399024
-7.37379e-05
0.039878
-6.92191e-05
0.0398507
-6.10242e-05
0.0398225
-4.85925e-05
0.0397874
-3.12911e-05
0.0397554
-6.44588e-06
0.0397288
2.2576e-05
0.0396822
5.64646e-05
0.039636
0.000105763
0.0395909
0.000159147
0.0395559
0.000222945
0.0395287
0.000305172
0.0395645
0.000361592
0.0395028
0.000438708
0.0394317
0.000526915
0.0394111
0.000617899
0.0394108
0.000708795
0.0394263
0.000796327
0.0394598
0.000875583
0.0395332
0.000940828
0.0396732
0.000996877
0.0396704
0.0010388
0.0397303
0.00106445
0.0398196
0.00107323
0.0399134
0.00106436
0.0400062
0.00104453
0.0400909
0.00100869
0.0401708
0.000967577
0.0402363
0.00091363
0.0402966
0.000853325
0.0403458
0.000790487
0.0403829
0.000722932
0.0404344
0.000675622
0.0404778
0.000631128
0.040433
0.000580501
0.0404246
0.000524063
0.0404294
0.000472096
0.0404307
0.000430178
0.0404178
0.000384751
0.0404091
0.000343703
0.0403991
0.000302786
0.0403905
0.000263845
0.0403818
0.000226671
0.0403733
0.000193105
0.0403633
0.000156836
0.0403581
0.000125723
0.0403498
9.34876e-05
0.0403466
6.19224e-05
0.0403406
3.08002e-05
0.04034
0.0403359
-1.41307e-05
0.0400182
-2.79615e-05
0.0400148
-3.94311e-05
0.0400102
-5.23453e-05
0.0400031
-6.64907e-05
0.0399955
-7.56319e-05
0.0399814
-8.55039e-05
0.0399666
-9.38092e-05
0.0399509
-0.000100203
0.0399283
-0.000104296
0.0399064
-0.000105639
0.0398794
-0.000103722
0.0398488
-9.5966e-05
0.0398148
-8.56918e-05
0.0397771
-6.81845e-05
0.0397379
-4.45849e-05
0.0397052
-1.80202e-05
0.0396557
1.83249e-05
0.0395996
6.33976e-05
0.0395458
0.000125933
0.0394934
0.000200803
0.0394538
0.000327958
0.0394373
0.000368483
0.0394623
0.000440203
0.03936
0.000540985
0.0393103
0.00064814
0.0393036
0.000756343
0.0393181
0.000860718
0.0393554
0.000956404
0.0394375
0.0010359
0.0395937
0.00110308
0.0396032
0.00115249
0.0396809
0.001181
0.0397911
0.00118853
0.0399059
0.00117699
0.0400177
0.00114734
0.0401206
0.0011037
0.0402144
0.0010457
0.0402943
0.000970897
0.0403714
0.000882038
0.0404347
0.00079575
0.0404691
0.000731618
0.0404986
0.000714324
0.040495
0.00066122
0.0404861
0.000601074
0.0404847
0.000542062
0.0404885
0.000490066
0.0404827
0.00044109
0.0404668
0.000395187
0.040455
0.000350084
0.0404442
0.000307555
0.040433
0.000267355
0.040422
0.000231241
0.0404094
0.000192885
0.0404016
0.000160099
0.0403908
0.000124539
0.0403853
9.40223e-05
0.0403771
6.02148e-05
0.0403745
3.09401e-05
0.0403692
0.0403668
-1.69956e-05
0.0400352
-3.36999e-05
0.0400315
-5.0069e-05
0.0400265
-6.59278e-05
0.040019
-7.90649e-05
0.0400087
-9.32562e-05
0.0399956
-0.000106241
0.0399796
-0.000117715
0.0399624
-0.000127344
0.0399379
-0.000134702
0.0399138
-0.000137325
0.039882
-0.000138638
0.0398501
-0.000136018
0.0398122
-0.000128698
0.0397698
-0.000113839
0.0397231
-8.64747e-05
0.0396779
-6.32461e-05
0.0396325
-3.12825e-05
0.0395677
1.46852e-05
0.0394998
7.19518e-05
0.0394361
0.000151555
0.0393742
0.000246645
0.0393422
0.000329882
0.039379
0.000431901
0.039258
0.000549992
0.0391922
0.000676603
0.039177
0.000805917
0.0391888
0.000932194
0.0392292
0.00104835
0.0393213
0.00114637
0.0394957
0.00122736
0.0395222
0.00128526
0.039623
0.00131719
0.0397591
0.00132252
0.0399005
0.00130354
0.0400367
0.00126099
0.0401631
0.00120192
0.0402735
0.00111788
0.0403783
0.00102927
0.04046
0.000953905
0.0405101
0.000862349
0.0405607
0.000807868
0.0405531
0.000753971
0.0405489
0.000687994
0.0405521
0.000618098
0.0405546
0.000552428
0.0405541
0.000500452
0.0405347
0.000448504
0.0405188
0.000398286
0.0405053
0.000351416
0.0404911
0.000309595
0.0404749
0.000268429
0.0404631
0.000229649
0.0404482
0.000192884
0.0404384
0.000157834
0.0404259
0.00012621
0.040417
9.16536e-05
0.0404117
6.19595e-05
0.0404041
3.07884e-05
0.0404004
0.0403976
-2.00687e-05
0.0400552
-3.98618e-05
0.0400513
-5.93625e-05
0.040046
-7.64049e-05
0.040036
-9.48074e-05
0.0400271
-0.000112355
0.0400132
-0.0001308
0.039998
-0.000143851
0.0399754
-0.000157159
0.0399512
-0.000166314
0.039923
-0.000176807
0.0398925
-0.000180069
0.0398534
-0.000181368
0.0398135
-0.000177904
0.0397664
-0.000168664
0.0397138
-0.000148526
0.0396577
-0.000125947
0.0396099
-9.17023e-05
0.0395334
-4.60719e-05
0.0394542
1.27563e-05
0.0393773
8.65457e-05
0.0393004
0.00018685
0.0392419
0.000300913
0.039265
0.000409955
0.039149
0.000548828
0.0390533
0.000699439
0.0390264
0.000854566
0.0390337
0.00100784
0.0390759
0.00115168
0.0391775
0.00127388
0.0393735
0.00137054
0.0394256
0.00143945
0.0395541
0.00147457
0.039724
0.00147565
0.0398995
0.00144464
0.0400677
0.00138885
0.0402189
0.00129744
0.0403649
0.00119371
0.0404821
0.00110623
0.0405475
0.0010252
0.0405911
0.000942047
0.0406439
0.000864258
0.0406308
0.000783435
0.0406298
0.000706104
0.0406294
0.000632291
0.0406284
0.000567789
0.0406186
0.000508343
0.0405941
0.000453788
0.0405733
0.000401593
0.0405575
0.000353322
0.0405394
0.00030854
0.0405196
0.000266812
0.0405049
0.000227732
0.0404873
0.000192927
0.0404732
0.000155958
0.0404629
0.00012255
0.0404504
9.23634e-05
0.0404419
6.10523e-05
0.0404355
3.0321e-05
0.0404312
0.0404279
-2.33292e-05
0.0400786
-4.44009e-05
0.0400724
-6.72393e-05
0.0400689
-9.17042e-05
0.0400605
-0.000113628
0.040049
-0.000134824
0.0400344
-0.000153066
0.0400163
-0.000172083
0.0399945
-0.00018953
0.0399686
-0.000205029
0.0399385
-0.000216057
0.0399035
-0.000227999
0.0398654
-0.000232138
0.0398176
-0.000233539
0.0397678
-0.000229144
0.0397094
-0.000215605
0.0396442
-0.00019132
0.0395856
-0.000164358
0.0395064
-0.00012076
0.0394106
-6.20607e-05
0.0393185
1.63071e-05
0.039222
0.000121186
0.0391371
0.000281892
0.0391043
0.000381384
0.0390495
0.000548137
0.0194574
0.0194292
0.000730247
0.019427
0.0194173
0.000918942
0.0194244
0.0194206
0.00111055
0.019441
0.0194433
0.00129821
0.0194816
0.0195082
0.00143677
0.0196171
0.0196178
0.00155676
0.0196551