/*--------------------------------*- C++ -*----------------------------------*\
  =========                 |
  \\      /  F ield         | OpenFOAM: The Open Source CFD Toolbox
   \\    /   O peration     | Website:  https://openfoam.org
    \\  /    A nd           | Version:  12
     \\/     M anipulation  |
\*---------------------------------------------------------------------------*/
FoamFile
{
    format      ascii;
    class       volVectorField;
    location    "340";
    object      U;
}
// * * * * * * * * * * * * * * * * * * * * * * * * * * * * * * * * * * * * * //

dimensions      [0 1 -1 0 0 0 0];

internalField   nonuniform List<vector> 
16227
(
(2 -2.09666e-07 -1.03539e-22)
(2 -5.56283e-07 1.03704e-22)
(2 -6.33073e-07 -1.03705e-22)
(2 -2.19402e-07 -1.03575e-22)
(2 8.81727e-07 1.03576e-22)
(2 2.86667e-06 1.03301e-22)
(2 5.92226e-06 -1.8202e-25)
(2 1.0238e-05 -2.05956e-22)
(2 1.59882e-05 3.07996e-22)
(2 2.33224e-05 -2.05132e-22)
(2 3.23837e-05 0)
(2 4.32997e-05 2.03157e-22)
(2 5.62391e-05 0)
(2 7.12794e-05 0)
(2 8.84538e-05 0)
(2 0.000107781 0)
(2 0.000129227 0)
(2 0.00015271 0)
(2 0.000178094 0)
(2 0.00020519 0)
(2 0.000233745 -1.80364e-22)
(2 0.000263452 4.27893e-24)
(2 0.000293951 1.76083e-22)
(2 0.000324823 0)
(2 0.000355611 -1.60722e-22)
(2 0.000385832 1.60721e-22)
(2 0.000414989 0)
(2 0.000442548 7.26504e-23)
(2 0.000468055 0)
(2 0.000491096 0)
(2 0.000511277 0)
(2 0.000528196 0)
(2 0.000541529 0)
(2 0.000551121 9.5841e-23)
(2 0.00055686 -8.16061e-24)
(2 0.000558733 -8.76822e-23)
(2 0.000556787 0)
(2 0.000551153 6.33575e-23)
(2 0.00054203 -7.88844e-24)
(2 0.000529664 -5.54691e-23)
(2 0.000514346 0)
(2 0.000496391 0)
(2 0.000476127 0)
(2 0.00045389 0)
(2 0.000429994 0)
(2 0.00040474 0)
(2 0.000378418 0)
(2 0.00035131 0)
(2 0.000323618 0)
(2 0.000295519 0)
(2 0.000267194 0)
(2 0.000238767 0)
(2 0.000210377 0)
(2 0.000182039 0)
(2 0.000153743 1.37596e-23)
(2 0.000125539 -1.37602e-23)
(2 9.74725e-05 0)
(2 6.9553e-05 0)
(2 4.17447e-05 0)
(2 1.3941e-05 -1.63526e-23)
(2 6.90978e-06 -4.03553e-26)
(2 2.07337e-05 0)
(2 3.58734e-05 0)
(2 5.30649e-05 0)
(2 7.31199e-05 -1.75148e-22)
(2 9.68304e-05 0)
(1.99999 0.000124962 0)
(1.99999 0.000158261 -5.22229e-22)
(1.99999 0.000197404 3.47955e-22)
(1.99998 0.000243001 -6.91564e-22)
(1.99998 0.00029557 2.75925e-21)
(1.99997 0.00035558 -1.71803e-21)
(1.99997 0.000423586 8.562e-22)
(1.99996 0.000499918 0)
(1.99996 0.000584625 0)
(1.99995 0.000677655 0)
(1.99995 0.000778787 0)
(1.99994 0.000887582 0)
(1.99994 0.0010034 0)
(1.99993 0.00112535 0)
(1.99993 0.00125234 0)
(1.99993 0.00138302 0)
(1.99993 0.00151586 0)
(1.99993 0.00164909 0)
(1.99993 0.00178081 0)
(1.99993 0.00190901 -2.61996e-22)
(1.99993 0.00203164 2.61978e-22)
(1.99994 0.00214656 -1.22738e-22)
(1.99994 0.00225186 0)
(1.99995 0.00234582 0)
(1.99996 0.00242683 0)
(1.99996 0.00249346 0)
(1.99997 0.00254448 0)
(1.99998 0.00257924 0)
(1.99999 0.00259733 0)
(2 0.00259873 -1.34268e-22)
(2.00001 0.00258371 1.37889e-23)
(2.00002 0.00255281 1.36261e-23)
(2.00002 0.00250691 1.33819e-23)
(2.00003 0.00244706 9.34761e-23)
(2.00004 0.00237449 6.77432e-23)
(2.00004 0.00229052 -6.77457e-23)
(2.00005 0.00219654 0)
(2.00005 0.00209395 0)
(2.00006 0.0019841 0)
(2.00006 0.00186825 0)
(2.00006 0.0017476 0)
(2.00006 0.00162329 0)
(2.00007 0.00149623 0)
(2.00007 0.00136722 0)
(2.00007 0.00123701 -2.7686e-23)
(2.00007 0.0011061 5.90684e-23)
(2.00007 0.000975083 7.75255e-23)
(2.00007 0.000844126 -7.75341e-23)
(2.00007 0.000713255 9.40934e-23)
(2.00007 0.000582685 -1.44232e-22)
(2.00007 0.000452593 5.01577e-23)
(2.00006 0.000322961 -2.7144e-23)
(2.00006 0.000193727 2.71456e-23)
(2.00006 6.47654e-05 -4.07501e-25)
(1.99998 2.45515e-05 1.74875e-22)
(1.99997 7.38181e-05 0)
(1.99997 0.000125599 0)
(1.99997 0.000181193 0)
(1.99996 0.000242059 1.7514e-22)
(1.99995 0.000309644 -3.4971e-22)
(1.99994 0.00038538 5.50765e-25)
(1.99993 0.000470583 5.23208e-22)
(1.99992 0.000566498 1.74072e-22)
(1.99991 0.000674234 6.92373e-22)
(1.99989 0.000794717 -6.93353e-22)
(1.99988 0.000928742 -1.37658e-21)
(1.99986 0.0010772 1.71759e-22)
(1.99985 0.00124065 0)
(1.99983 0.00141911 1.68951e-22)
(1.99981 0.00161245 0)
(1.9998 0.00182013 0)
(1.99978 0.00204124 0)
(1.99977 0.00227447 -6.37231e-22)
(1.99976 0.00251809 6.37093e-22)
(1.99975 0.00276981 -3.06271e-22)
(1.99974 0.00302724 3.06232e-22)
(1.99974 0.00328735 0)
(1.99974 0.00354677 -2.82373e-22)
(1.99975 0.00380185 9.39198e-24)
(1.99976 0.00404878 2.72911e-22)
(1.99977 0.00428367 0)
(1.99978 0.00450257 0)
(1.9998 0.00470182 0)
(1.99983 0.00487803 0)
(1.99986 0.00502817 9.78522e-23)
(1.99988 0.00514972 -2.02881e-22)
(1.99992 0.00524056 0)
(1.99995 0.0052994 0)
(1.99998 0.00532554 1.47934e-22)
(2.00001 0.00531906 -1.4793e-22)
(2.00004 0.00528046 0)
(2.00007 0.00521089 0)
(2.0001 0.00511208 0)
(2.00013 0.00498603 0)
(2.00015 0.00483518 0)
(2.00017 0.00466208 0)
(2.00019 0.00446943 -2.39317e-23)
(2.00021 0.00425996 0)
(2.00022 0.0040362 0)
(2.00023 0.0038006 0)
(2.00024 0.00355558 9.42856e-25)
(2.00024 0.00330321 1.69814e-24)
(2.00025 0.0030453 0)
(2.00025 0.00278344 -9.86354e-24)
(2.00025 0.002519 0)
(2.00025 0.00225307 -3.13581e-23)
(2.00025 0.00198666 -7.97925e-23)
(2.00025 0.00172016 -3.06144e-23)
(2.00025 0.00145374 8.87706e-23)
(2.00025 0.00118791 -5.12649e-23)
(2.00025 0.000922856 5.12871e-23)
(2.00025 0.000658534 0)
(2.00025 0.000394904 0)
(2.00025 0.000131856 2.80151e-23)
(1.99991 4.29902e-05 0)
(1.9999 0.000129741 0)
(1.9999 0.000220108 -1.75633e-22)
(1.99989 0.000316019 0)
(1.99987 0.000419539 -1.75273e-22)
(1.99986 0.000532787 1.75256e-22)
(1.99984 0.000657824 0)
(1.99981 0.000796596 -5.22857e-22)
(1.99979 0.000950868 5.23516e-22)
(1.99976 0.00112232 0)
(1.99973 0.00131231 -6.91248e-22)
(1.9997 0.00152196 -2.0723e-21)
(1.99966 0.00175255 -3.42592e-22)
(1.99963 0.00200477 0)
(1.99959 0.00227878 -1.68924e-22)
(1.99956 0.00257429 0)
(1.99953 0.00289059 0)
(1.9995 0.00322633 1.30149e-21)
(1.99947 0.00357955 -1.30109e-21)
(1.99945 0.00394758 0)
(1.99943 0.00432708 -3.08025e-22)
(1.99942 0.00471452 7.15546e-24)
(1.99942 0.00510538 7.91147e-24)
(1.99942 0.00549457 2.92833e-22)
(1.99944 0.00587668 0)
(1.99946 0.00624601 0)
(1.99949 0.00659673 0)
(1.99953 0.00692293 1.20941e-22)
(1.99957 0.00721907 -2.44073e-24)
(1.99963 0.00748016 1.08399e-22)
(1.99969 0.00770156 -3.5281e-24)
(1.99976 0.00787951 0)
(1.99983 0.00801092 0)
(1.9999 0.00809389 0)
(1.99997 0.00812743 -1.47777e-22)
(2.00004 0.00811161 1.42201e-23)
(2.00011 0.00804739 1.41294e-23)
(2.00018 0.00793668 1.3947e-23)
(2.00025 0.00778201 1.9729e-22)
(2.0003 0.00758645 -9.18075e-23)
(2.00036 0.00735368 0)
(2.0004 0.00708767 -2.91452e-23)
(2.00044 0.00679247 2.39043e-23)
(2.00048 0.00647209 0)
(2.00051 0.00613048 0)
(2.00053 0.00577139 0)
(2.00055 0.0053983 -2.63813e-24)
(2.00056 0.00501436 0)
(2.00057 0.00462224 0)
(2.00058 0.00422438 2.08711e-23)
(2.00058 0.00382275 6.14798e-23)
(2.00059 0.00341901 -1.34746e-22)
(2.00059 0.00301463 7.32975e-23)
(2.00059 0.00260988 1.14263e-22)
(2.00059 0.00220555 -9.26348e-23)
(2.00058 0.00180223 0)
(2.00058 0.00140011 0)
(2.00058 0.000998998 -2.89857e-23)
(2.00058 0.000598967 0)
(2.00058 0.000199715 0)
(1.9998 5.68023e-05 0)
(1.9998 0.000172109 0)
(1.99979 0.000292052 -1.7861e-25)
(1.99977 0.000419238 0)
(1.99975 0.00055631 0)
(1.99972 0.000706061 -3.51005e-22)
(1.99968 0.000871177 -5.25198e-22)
(1.99964 0.00105426 5.25484e-22)
(1.9996 0.00125764 0)
(1.99955 0.00148358 0)
(1.9995 0.00173398 -6.9372e-22)
(1.99944 0.00201026 4.1465e-21)
(1.99938 0.00231435 -3.43256e-22)
(1.99932 0.0026468 3.43634e-22)
(1.99926 0.00300825 0)
(1.9992 0.00339832 0)
(1.99915 0.00381612 6.64129e-22)
(1.9991 0.00426008 1.97326e-21)
(1.99905 0.00472774 -9.83496e-22)
(1.99901 0.0052152 0)
(1.99899 0.00571866 0)
(1.99897 0.00623317 0)
(1.99896 0.00675272 0)
(1.99897 0.00727051 -2.86805e-22)
(1.999 0.00777934 9.49805e-24)
(1.99904 0.00827152 1.02851e-23)
(1.99909 0.00873916 2.66809e-22)
(1.99916 0.00917432 1.25753e-22)
(1.99925 0.00956943 -2.65132e-24)
(1.99935 0.00991774 -1.1565e-22)
(1.99946 0.0102128 3.11231e-22)
(1.99958 0.0104496 -2.0486e-22)
(1.9997 0.010624 -1.7667e-22)
(1.99983 0.0107334 1.76649e-22)
(1.99996 0.0107765 1.47628e-22)
(2.00009 0.0107535 -1.47619e-22)
(2.00022 0.0106658 0)
(2.00034 0.0105159 0)
(2.00045 0.0103074 -9.04229e-23)
(2.00056 0.0100447 9.04294e-23)
(2.00065 0.00973262 6.37212e-23)
(2.00073 0.00937672 -3.46151e-23)
(2.0008 0.00898244 0)
(2.00087 0.00855511 0)
(2.00092 0.00810022 0)
(2.00096 0.00762268 0)
(2.00099 0.00712711 0)
(2.00102 0.00661775 0)
(2.00103 0.00609814 8.69981e-24)
(2.00105 0.0055714 6.77669e-23)
(2.00105 0.00504024 -5.36959e-23)
(2.00106 0.00450678 -7.86903e-23)
(2.00106 0.00397277 1.22561e-22)
(2.00106 0.00343846 -9.80061e-23)
(2.00106 0.00290522 9.80264e-23)
(2.00105 0.00237364 0)
(2.00105 0.00184383 0)
(2.00105 0.0013154 -1.51323e-24)
(2.00105 0.000788537 0)
(2.00105 0.000262637 0)
(1.99968 6.54679e-05 -1.75441e-22)
(1.99967 0.000199224 0)
(1.99965 0.000338606 -8.90512e-26)
(1.99962 0.000486942 1.75913e-22)
(1.99959 0.000647452 0)
(1.99954 0.000823624 -3.40234e-25)
(1.99949 0.00101878 -3.51193e-22)
(1.99943 0.00123616 3.51031e-22)
(1.99936 0.00147883 0)
(1.99928 0.00174961 0)
(1.9992 0.00205105 3.49828e-22)
(1.99912 0.00238486 1.39462e-21)
(1.99903 0.00275385 -6.90486e-22)
(1.99893 0.00315848 3.45935e-22)
(1.99884 0.00359992 0)
(1.99875 0.00407788 -3.38419e-22)
(1.99867 0.00459139 3.38387e-22)
(1.99859 0.00513875 -2.77468e-24)
(1.99852 0.00571687 -1.48427e-21)
(1.99846 0.00632121 -3.20196e-22)
(1.99841 0.00694735 3.25727e-22)
(1.99839 0.00758863 7.02657e-24)
(1.99838 0.00823776 3.06966e-22)
(1.99839 0.00888622 0)
(1.99843 0.00952475 0)
(1.9985 0.0101435 0)
(1.99858 0.0107325 0)
(1.99869 0.0112814 -1.25676e-22)
(1.99883 0.0117805 0)
(1.99898 0.0122209 0)
(1.99916 0.0125944 3.15031e-22)
(1.99934 0.0128942 -2.06487e-22)
(1.99954 0.0131153 0)
(1.99975 0.0132542 0)
(1.99995 0.0133095 0)
(2.00016 0.0132812 0)
(2.00035 0.0131714 1.17615e-22)
(2.00054 0.0129833 -1.46378e-23)
(2.00072 0.0127219 -1.50375e-22)
(2.00088 0.0123928 0)
(2.00103 0.0120023 0)
(2.00115 0.0115575 4.84908e-23)
(2.00127 0.0110655 -6.87769e-23)
(2.00136 0.0105332 0)
(2.00144 0.00996743 0)
(2.00151 0.00937446 0)
(2.00156 0.00876011 0)
(2.00159 0.00812964 0)
(2.00162 0.00748746 -3.16223e-23)
(2.00164 0.00683747 -1.23167e-22)
(2.00165 0.00618295 1.21056e-22)
(2.00166 0.00552642 -8.5541e-23)
(2.00166 0.00486941 4.17529e-23)
(2.00166 0.004213 0)
(2.00165 0.00355872 -2.82622e-23)
(2.00165 0.00290693 0)
(2.00164 0.00225761 0)
(2.00164 0.00161031 3.04787e-23)
(2.00163 0.000965155 0)
(2.00163 0.000321191 -3.32436e-23)
(1.99954 6.90498e-05 -1.66137e-25)
(1.99952 0.000211188 0)
(1.9995 0.000359931 0)
(1.99946 0.000519363 -1.76308e-22)
(1.99941 0.000693317 0)
(1.99934 0.000885965 1.7601e-22)
(1.99927 0.00110134 -1.76126e-22)
(1.99918 0.00134331 3.5239e-22)
(1.99908 0.00161571 0)
(1.99897 0.00192208 -7.02089e-22)
(1.99886 0.0022657 3.52142e-22)
(1.99874 0.00264876 1.72708e-24)
(1.99861 0.00307459 1.40176e-21)
(1.99848 0.00354454 -6.92063e-22)
(1.99834 0.0040595 2.07644e-24)
(1.99821 0.00461991 -1.66642e-22)
(1.99809 0.00522475 3.39133e-21)
(1.99797 0.00587251 -1.36855e-21)
(1.99787 0.00655939 -2.16253e-21)
(1.99778 0.0072803 2.97125e-21)
(1.99772 0.00803045 3.2909e-22)
(1.99768 0.00880098 -3.11439e-22)
(1.99767 0.00958365 7.82497e-24)
(1.99769 0.0103679 3.03386e-22)
(1.99774 0.0111423 0)
(1.99783 0.0118947 0)
(1.99795 0.0126125 0)
(1.99811 0.013283 0)
(1.99831 0.0138937 1.22838e-22)
(1.99853 0.0144335 0)
(1.99878 0.0148921 -3.23355e-22)
(1.99906 0.0152608 0)
(1.99934 0.0155331 1.78415e-22)
(1.99964 0.015705 -1.78374e-22)
(1.99994 0.0157746 1.47328e-22)
(2.00023 0.0157423 -1.55314e-23)
(2.00052 0.0156105 -2.48157e-22)
(2.00079 0.0153837 1.16382e-22)
(2.00104 0.0150681 -3.91513e-23)
(2.00128 0.014671 8.65068e-23)
(2.00149 0.0142005 3.17792e-23)
(2.00167 0.0136654 0)
(2.00183 0.0130744 2.02545e-23)
(2.00197 0.0124364 0)
(2.00208 0.0117596 0)
(2.00217 0.0110518 1.08236e-24)
(2.00224 0.01032 3.94134e-24)
(2.00229 0.00957046 0)
(2.00233 0.00880841 -1.59545e-22)
(2.00235 0.00803863 -1.6701e-22)
(2.00237 0.00726485 2.75446e-22)
(2.00237 0.00649 9.38226e-23)
(2.00237 0.00571524 -2.24038e-22)
(2.00237 0.00494274 1.04159e-22)
(2.00236 0.00417364 2.82478e-23)
(2.00236 0.00340814 0)
(2.00235 0.00264612 -6.63392e-23)
(2.00234 0.00188702 3.28365e-23)
(2.00234 0.0011308 0)
(2.00233 0.000376076 -2.17935e-24)
(1.99939 6.75184e-05 1.75644e-22)
(1.99938 0.000207844 0)
(1.99934 0.000355779 0)
(1.99929 0.000516149 1.76413e-22)
(1.99922 0.000693446 -7.97408e-26)
(1.99913 0.000892543 1.76556e-22)
(1.99903 0.00111825 -1.76914e-22)
(1.99891 0.0013751 -5.29765e-22)
(1.99878 0.00166771 3.53231e-22)
(1.99863 0.00200042 -7.05869e-22)
(1.99847 0.00237739 -1.76162e-22)
(1.99831 0.00280157 1.05843e-21)
(1.99813 0.00327646 -2.79851e-21)
(1.99795 0.00380494 -1.39627e-21)
(1.99777 0.00438791 1.39762e-21)
(1.99759 0.0050261 -1.72523e-22)
(1.99741 0.00571903 4.14562e-21)
(1.99725 0.00646506 -6.9201e-22)
(1.99711 0.00726057 -6.6777e-22)
(1.99699 0.00809947 -1.96784e-21)
(1.99689 0.00897678 3.35218e-22)
(1.99683 0.00988141 0)
(1.99681 0.0108041 0)
(1.99684 0.0117319 -2.99949e-22)
(1.99691 0.0126514 9.77998e-24)
(1.99703 0.0135476 2.89893e-22)
(1.9972 0.0144048 0)
(1.99741 0.0152075 2.54357e-22)
(1.99768 0.0159402 -3.76944e-22)
(1.99799 0.0165892 0)
(1.99833 0.0171413 9.91753e-23)
(1.9987 0.0175859 -4.06696e-22)
(1.9991 0.017915 1.58982e-23)
(1.99951 0.0181236 3.4301e-22)
(1.99992 0.0182094 -1.62406e-23)
(2.00032 0.0181732 -1.4712e-22)
(2.00071 0.0180184 0)
(2.00109 0.0177505 9.91745e-23)
(2.00143 0.0173776 -1.52933e-23)
(2.00175 0.0169087 -8.389e-23)
(2.00203 0.0163541 -6.17084e-23)
(2.00228 0.0157248 0)
(2.0025 0.0150314 0)
(2.00268 0.0142846 -9.9447e-24)
(2.00283 0.0134945 0)
(2.00294 0.0126704 3.59947e-25)
(2.00304 0.0118205 -3.93744e-24)
(2.0031 0.0109522 2.23903e-23)
(2.00315 0.0100716 1.74954e-22)
(2.00318 0.00918411 1.57187e-22)
(2.0032 0.00829412 -6.65004e-23)
(2.00321 0.00740405 -1.16657e-23)
(2.0032 0.00651601 1.58097e-22)
(2.0032 0.00563242 -5.94998e-23)
(2.00319 0.00475379 0)
(2.00317 0.00388036 0)
(2.00316 0.00301176 -2.55231e-24)
(2.00315 0.00214722 0)
(2.00315 0.00128647 0)
(2.00314 0.000427642 3.54012e-23)
(1.99926 6.09037e-05 0)
(1.99923 0.00018923 0)
(1.99919 0.00032618 1.76688e-22)
(1.99912 0.000477349 -1.76602e-22)
(1.99903 0.000647895 0)
(1.99892 0.000843414 -3.54341e-22)
(1.99878 0.00106955 1.76776e-22)
(1.99863 0.00133159 1.7728e-22)
(1.99846 0.00163493 0)
(1.99826 0.00198479 0)
(1.99806 0.00238632 -5.32962e-22)
(1.99784 0.00284356 3.56285e-22)
(1.9976 0.00336031 1.41608e-21)
(1.99736 0.00394066 4.26714e-21)
(1.99712 0.00458652 0)
(1.99688 0.00529822 -7.06952e-22)
(1.99665 0.00607686 -2.77471e-21)
(1.99643 0.00692015 -6.97838e-22)
(1.99623 0.00782541 -1.36e-21)
(1.99607 0.00878537 3.44512e-22)
(1.99594 0.00979513 -6.53851e-22)
(1.99585 0.0108411 6.61334e-24)
(1.99581 0.0119128 7.67128e-24)
(1.99584 0.0129954 3.15073e-22)
(1.99592 0.0140723 0)
(1.99607 0.0151255 0)
(1.99629 0.0161362 0)
(1.99658 0.0170851 1.34758e-22)
(1.99693 0.0179532 -1.27666e-22)
(1.99733 0.0187236 0)
(1.99779 0.0193801 2.10269e-22)
(1.99828 0.0199092 -2.14174e-22)
(1.99881 0.0203013 0)
(1.99934 0.0205505 0)
(1.99989 0.0206541 2.24749e-22)
(2.00042 0.0206132 -1.46892e-22)
(2.00094 0.0204324 -1.13103e-22)
(2.00143 0.0201191 2.09775e-22)
(2.00189 0.0196832 -9.66756e-23)
(2.0023 0.0191363 0)
(2.00267 0.0184909 8.06941e-23)
(2.00299 0.0177607 -5.07747e-23)
(2.00327 0.0169587 -1.36596e-23)
(2.0035 0.0160977 1.71448e-23)
(2.00369 0.0151897 0)
(2.00384 0.0142456 -1.43972e-24)
(2.00396 0.013275 1.90276e-23)
(2.00404 0.0122865 -2.23671e-23)
(2.0041 0.011287 1.77338e-22)
(2.00413 0.0102825 -3.2883e-23)
(2.00415 0.00927787 -4.07898e-23)
(2.00415 0.00827501 -2.86934e-23)
(2.00415 0.00727725 2.87066e-23)
(2.00413 0.00628638 3.10202e-23)
(2.00412 0.00530274 -7.12145e-23)
(2.0041 0.0043264 -1.47143e-24)
(2.00408 0.00335666 7.2772e-23)
(2.00407 0.00239245 -3.99007e-23)
(2.00406 0.00143307 0)
(2.00405 0.000476163 0)
(1.99914 4.92244e-05 0)
(1.99911 0.000155379 0)
(1.99905 0.000271181 -3.53551e-22)
(1.99896 0.000402993 0)
(1.99885 0.00055668 0)
(1.99871 0.000738567 -3.8604e-25)
(1.99854 0.000955139 0)
(1.99835 0.00121257 -1.78211e-22)
(1.99812 0.00151714 -1.7907e-22)
(1.99788 0.00187487 1.78451e-22)
(1.99762 0.00229201 -7.15313e-22)
(1.99733 0.00277406 7.1527e-22)
(1.99703 0.00332541 0)
(1.99672 0.00395084 -4.25606e-21)
(1.99641 0.00465478 -7.21212e-22)
(1.9961 0.00543581 6.88306e-22)
(1.99579 0.00629816 -4.26918e-21)
(1.9955 0.0072389 1.39875e-21)
(1.99524 0.00825629 -7.00336e-22)
(1.99502 0.00934188 0)
(1.99484 0.0104912 -6.87447e-22)
(1.99472 0.011688 0)
(1.99466 0.0129209 -3.22748e-22)
(1.99468 0.0141722 3.22557e-22)
(1.99477 0.0154225 -3.03592e-22)
(1.99496 0.0166499 1.52235e-22)
(1.99523 0.0178319 0)
(1.9956 0.0189446 -1.34718e-22)
(1.99604 0.0199651 3.89177e-22)
(1.99656 0.0208724 1.22725e-22)
(1.99715 0.0216463 -2.22511e-22)
(1.99778 0.0222704 -8.8425e-23)
(1.99846 0.0227329 2.00489e-22)
(1.99915 0.0230267 0)
(1.99985 0.0231489 6.88869e-23)
(2.00054 0.0231012 -1.79418e-23)
(2.00121 0.0228898 -1.76618e-23)
(2.00184 0.0225241 -1.10928e-22)
(2.00242 0.0220167 7.70389e-23)
(2.00294 0.0213825 -1.10296e-22)
(2.00341 0.0206368 2.52829e-23)
(2.00382 0.0197962 0)
(2.00416 0.0188765 1.36435e-23)
(2.00445 0.0178931 -7.20283e-24)
(2.00468 0.0168602 0)
(2.00486 0.0157904 0)
(2.005 0.0146948 -1.9007e-23)
(2.00509 0.0135832 -2.37057e-24)
(2.00516 0.012463 -3.25877e-23)
(2.0052 0.011341 -1.8139e-22)
(2.00521 0.0102217 -5.16907e-23)
(2.00521 0.00910786 -3.23358e-23)
(2.00519 0.00800284 -3.43733e-23)
(2.00517 0.00690789 -2.12769e-24)
(2.00515 0.00582313 3.32425e-23)
(2.00512 0.00474839 0)
(2.0051 0.00368241 0)
(2.00508 0.00262373 8.29694e-23)
(2.00506 0.00157126 0)
(2.00505 0.000521896 0)
(1.99905 3.24492e-05 0)
(1.99901 0.000106185 0)
(1.99894 0.00019059 -1.77111e-25)
(1.99883 0.000292775 1.77046e-22)
(1.99869 0.000419339 0)
(1.99852 0.000577342 1.77679e-22)
(1.99831 0.00077415 1.7854e-22)
(1.99807 0.0010169 4.71134e-25)
(1.99779 0.00131279 -1.80655e-25)
(1.99749 0.00166892 -1.79958e-22)
(1.99716 0.00209243 1.79912e-22)
(1.9968 0.00259039 1.81269e-22)
(1.99643 0.00316872 -3.6338e-22)
(1.99604 0.00383204 -2.90867e-21)
(1.99564 0.00458828 -7.26188e-22)
(1.99524 0.00543571 2.88238e-21)
(1.99484 0.00637954 2.14836e-21)
(1.99447 0.00741831 -1.43316e-21)
(1.99413 0.00855084 1.42249e-21)
(1.99383 0.0097678 2.14273e-21)
(1.99359 0.0110658 3.42503e-22)
(1.99342 0.0124252 -2.0565e-24)
(1.99333 0.0138341 -3.31504e-22)
(1.99333 0.0152716 6.53853e-22)
(1.99344 0.0167149 -3.22337e-22)
(1.99366 0.018138 1.51162e-22)
(1.994 0.0195133 0)
(1.99444 0.020812 1.42298e-22)
(1.995 0.0220058 1.35848e-22)
(1.99565 0.0230689 -1.30978e-22)
(1.99639 0.0239765 1.08807e-22)
(1.9972 0.024708 1.05569e-22)
(1.99805 0.0252495 8.6833e-23)
(1.99893 0.0255921 -1.84656e-22)
(1.99982 0.0257329 0)
(2.00069 0.0256746 -1.27092e-22)
(2.00152 0.0254252 1.87054e-23)
(2.00231 0.0249975 1.08322e-22)
(2.00303 0.024407 -7.26452e-23)
(2.00368 0.0236727 1.92625e-23)
(2.00426 0.0228136 8.37138e-24)
(2.00476 0.0218498 -3.97603e-23)
(2.00518 0.0208007 2.52728e-23)
(2.00552 0.0196841 -4.00473e-25)
(2.0058 0.0185169 5.85584e-24)
(2.00601 0.0173136 4.85791e-23)
(2.00616 0.0160868 -1.85568e-22)
(2.00627 0.0148472 -3.20106e-24)
(2.00634 0.013603 -3.46316e-22)
(2.00638 0.0123628 -1.77538e-22)
(2.00638 0.0111284 2.6168e-23)
(2.00637 0.0099047 6.49127e-23)
(2.00635 0.00869448 3.7879e-23)
(2.00631 0.00749827 -3.79004e-23)
(2.00628 0.00631607 3.92186e-23)
(2.00624 0.00514706 4.31612e-23)
(2.00621 0.00398954 -4.31848e-23)
(2.00618 0.00284148 1.98841e-24)
(2.00616 0.00170121 -4.50758e-23)
(2.00614 0.000564899 0)
(1.999 1.0483e-05 0)
(1.99895 4.13716e-05 0)
(1.99886 8.39171e-05 0)
(1.99873 0.000145966 -1.77486e-22)
(1.99856 0.000234845 1.77501e-22)
(1.99835 0.000358379 -1.78512e-22)
(1.9981 0.000524821 1.7854e-22)
(1.99781 0.000742289 0)
(1.99747 0.001019 0)
(1.9971 0.00136334 1.81223e-22)
(1.99669 0.0017835 -3.63143e-22)
(1.99626 0.00228787 4.66416e-25)
(1.99579 0.00288448 7.28055e-22)
(1.9953 0.00357841 2.18125e-21)
(1.99481 0.00438001 1.46676e-21)
(1.9943 0.00529043 -1.46923e-21)
(1.99381 0.006313 -1.47435e-21)
(1.99333 0.00745008 9.17744e-22)
(1.99289 0.00870097 -7.36778e-22)
(1.9925 0.0100556 7.25752e-23)
(1.99218 0.0115122 -1.41674e-21)
(1.99194 0.0130493 2.82872e-21)
(1.99181 0.014652 -3.48719e-22)
(1.99179 0.016297 0)
(1.99191 0.0179575 0)
(1.99216 0.0196024 0)
(1.99256 0.0211983 0)
(1.9931 0.0227103 -1.42276e-22)
(1.99378 0.0241032 1.40815e-22)
(1.99459 0.0253457 -2.24624e-24)
(1.99551 0.0264065 0)
(1.99651 0.0272605 9.73982e-23)
(1.99757 0.0278907 -1.09417e-22)
(1.99867 0.0282865 8.87881e-23)
(1.99977 0.0284447 1.45626e-22)
(2.00085 0.0283697 -2.12832e-22)
(2.00189 0.0280724 -1.05222e-22)
(2.00286 0.0275691 5.85853e-23)
(2.00374 0.0268802 0)
(2.00454 0.026029 3.06119e-23)
(2.00524 0.0250396 3.41645e-24)
(2.00583 0.0239364 3.73812e-24)
(2.00633 0.0227426 -3.18807e-24)
(2.00673 0.0214794 1.35633e-23)
(2.00705 0.0201663 -1.52476e-23)
(2.00729 0.0188198 1.29957e-22)
(2.00746 0.0174539 -1.30002e-22)
(2.00758 0.0160812 3.4481e-22)
(2.00765 0.0147092 -5.42856e-22)
(2.00767 0.013348 1.78349e-22)
(2.00767 0.011998 0)
(2.00764 0.0106652 -3.93467e-23)
(2.0076 0.00935151 3.93712e-23)
(2.00755 0.00805684 0)
(2.0075 0.0067808 0)
(2.00745 0.00552181 0)
(2.0074 0.00427763 0)
(2.00737 0.00304534 0)
(2.00734 0.00182272 0)
(2.00732 0.000605081 0)
(1.999 -1.68219e-05 0)
(1.99893 -3.95002e-05 0)
(1.99883 -4.95887e-05 0)
(1.99868 -3.85546e-05 0)
(1.99848 1.64145e-06 0)
(1.99823 7.96228e-05 1.78838e-22)
(1.99792 0.000204482 -3.58498e-22)
(1.99757 0.000385388 1.79687e-22)
(1.99717 0.000631656 -1.81513e-22)
(1.99672 0.000952983 -9.67564e-25)
(1.99623 0.00135896 1.82531e-22)
(1.9957 0.00185934 0)
(1.99513 0.00246436 -3.7353e-22)
(1.99454 0.00318062 -1.12131e-21)
(1.99393 0.00401912 7.47406e-21)
(1.9933 0.00498694 -2.98533e-21)
(1.99268 0.00608553 1.49806e-21)
(1.99208 0.00732074 4.20848e-24)
(1.99152 0.00869312 9.26498e-22)
(1.99102 0.010193 -1.4236e-21)
(1.9906 0.0118193 -2.98409e-21)
(1.99028 0.0135509 2.32956e-23)
(1.99008 0.0153682 0)
(1.99003 0.017246 -3.44596e-22)
(1.99013 0.0191528 1.02742e-23)
(1.99042 0.0210514 3.3366e-22)
(1.99089 0.0229013 0)
(1.99153 0.02466 0)
(1.99236 0.0262841 -1.40958e-22)
(1.99335 0.0277347 -2.65679e-22)
(1.99448 0.028973 2.33044e-22)
(1.99571 0.0299678 -1.22959e-22)
(1.99702 0.030698 0)
(1.99838 0.0311512 -2.55846e-22)
(1.99973 0.0313243 8.90853e-23)
(2.00106 0.0312238 1.2366e-22)
(2.00233 0.0308645 -1.22766e-22)
(2.0035 0.0302678 4.65415e-23)
(2.00458 0.02946 2.75654e-23)
(2.00553 0.0284706 -8.53493e-23)
(2.00636 0.0273295 3.98715e-24)
(2.00706 0.0260665 4.32736e-24)
(2.00763 0.0247094 3.18325e-24)
(2.0081 0.0232832 4.755e-24)
(2.00846 0.0218102 0)
(2.00872 0.0203093 1.82079e-25)
(2.0089 0.0187953 -1.66868e-22)
(2.00902 0.0172832 4.93041e-22)
(2.00908 0.0157787 -1.11748e-22)
(2.00909 0.0142937 3.43607e-23)
(2.00907 0.0128275 0)
(2.00902 0.0113864 -4.36512e-23)
(2.00896 0.00997117 4.36808e-23)
(2.00889 0.00858114 0)
(2.00881 0.00721521 0)
(2.00874 0.00587083 0)
(2.00868 0.00454512 -5.19183e-23)
(2.00864 0.00323421 5.19481e-23)
(2.0086 0.00193518 0)
(2.00857 0.000642216 0)
(1.99906 -4.9644e-05 0)
(1.99898 -0.000136961 0)
(1.99886 -0.000210853 0)
(1.99868 -0.000262142 0)
(1.99845 -0.000282142 0)
(1.99815 -0.000261434 -1.79048e-22)
(1.99779 -0.000190118 3.59106e-22)
(1.99738 -5.79509e-05 1.08639e-24)
(1.9969 0.000145563 1.1846e-24)
(1.99637 0.000431455 1.84996e-22)
(1.99579 0.000811034 -5.52743e-22)
(1.99515 0.00129556 -1.32572e-24)
(1.99447 0.00189747 1.86497e-22)
(1.99375 0.0026259 -3.81637e-22)
(1.993 0.0034924 -2.261e-21)
(1.99224 0.0045098 -2.28296e-21)
(1.99147 0.0056801 1.38187e-23)
(1.99073 0.00701153 1.97685e-22)
(1.99002 0.00850762 5.77333e-22)
(1.98938 0.0101606 -2.26894e-21)
(1.98883 0.0119687 -2.42347e-21)
(1.9884 0.0139137 -7.39116e-22)
(1.98811 0.0159697 0)
(1.988 0.0181103 -3.5827e-22)
(1.9881 0.0202982 1.02842e-23)
(1.98841 0.0224892 3.47202e-22)
(1.98894 0.024634 1.67512e-22)
(1.98971 0.0266809 0)
(1.9907 0.0285757 2.99356e-22)
(1.9919 0.0302703 -4.08938e-22)
(1.99327 0.0317159 1.30917e-22)
(1.99478 0.0328733 -2.1648e-22)
(1.99639 0.0337169 3.05245e-22)
(1.99805 0.0342316 -2.41973e-23)
(1.9997 0.0344148 -8.99703e-23)
(2.00132 0.0342763 6.62647e-23)
(2.00285 0.0338357 0)
(2.00427 0.033122 0)
(2.00555 0.0321689 -2.04069e-23)
(2.00667 0.0310139 5.83218e-23)
(2.00764 0.0296945 1.4838e-23)
(2.00845 0.0282468 5.00314e-24)
(2.00911 0.0267039 1.32899e-23)
(2.00963 0.0250952 4.86357e-23)
(2.01003 0.0234458 -2.20841e-22)
(2.01031 0.021777 1.66487e-22)
(2.01049 0.020105 -1.23996e-22)
(2.0106 0.0184467 -3.68424e-22)
(2.01064 0.0168048 4.80873e-22)
(2.01063 0.0151938 7.87156e-23)
(2.01058 0.0136111 0)
(2.0105 0.0120629 4.8332e-23)
(2.01041 0.0105486 -4.83701e-23)
(2.01031 0.00906689 0)
(2.01021 0.00761564 -5.39763e-23)
(2.01012 0.00619118 5.40112e-23)
(2.01004 0.00478983 0)
(2.00998 0.00340654 0)
(2.00994 0.00203755 0)
(2.0099 0.00067598 0)
(1.99918 -8.81664e-05 0)
(1.99909 -0.000251587 0)
(1.99896 -0.00040086 0)
(1.99875 -0.000526282 0)
(1.99848 -0.000618564 0)
(1.99813 -0.000667558 0)
(1.99772 -0.000662584 -1.80312e-22)
(1.99724 -0.000592331 -1.32718e-24)
(1.99668 -0.000445088 -1.84669e-22)
(1.99606 -0.000208468 1.81692e-22)
(1.99537 0.000130697 -1.88281e-22)
(1.99462 0.000585549 3.73422e-22)
(1.9938 0.0011708 -3.80562e-22)
(1.99294 0.00189886 -3.42468e-24)
(1.99204 0.00278276 3.46983e-21)
(1.99112 0.00383912 -7.7988e-22)
(1.99018 0.00507446 -1.57069e-21)
(1.98926 0.00649831 -1.92658e-22)
(1.98838 0.00811886 -1.53444e-24)
(1.98756 0.00993178 2.39335e-21)
(1.98685 0.0119346 -2.21225e-22)
(1.98628 0.0141136 -3.87886e-22)
(1.98588 0.0164361 5.84815e-22)
(1.98569 0.0188747 1.93688e-22)
(1.98575 0.0213855 0)
(1.98608 0.023916 1.83101e-22)
(1.98669 0.0264062 -1.67572e-22)
(1.98759 0.0287923 3.15902e-22)
(1.98877 0.0310073 -4.67052e-22)
(1.99021 0.0329902 4.11679e-22)
(1.99187 0.03468 -1.35878e-22)
(1.99371 0.0360271 2.22008e-22)
(1.99567 0.0369996 -1.18466e-22)
(1.99768 0.0375795 2.6022e-22)
(1.99969 0.0377652 -2.63956e-23)
(2.00165 0.0375706 -2.05598e-22)
(2.00349 0.0370232 -9.1287e-23)
(2.00518 0.036161 9.12483e-23)
(2.00669 0.0350286 0)
(2.00801 0.0336736 1.9742e-23)
(2.00913 0.0321427 -4.73886e-24)
(2.01005 0.0304799 1.01827e-23)
(2.01079 0.0287246 1.20209e-23)
(2.01136 0.0269108 0)
(2.01178 0.0250661 -2.62386e-22)
(2.01206 0.0232155 5.19483e-22)
(2.01224 0.0213755 2.27562e-22)
(2.01232 0.0195623 7.34513e-23)
(2.01233 0.0177786 -4.47838e-23)
(2.01229 0.0160398 3.3913e-22)
(2.0122 0.0143406 -1.47185e-22)
(2.01208 0.0126873 5.0975e-23)
(2.01195 0.0110773 0)
(2.01182 0.00950843 0)
(2.01169 0.00797733 0)
(2.01157 0.0064789 5.98429e-23)
(2.01147 0.00500861 8.52289e-25)
(2.01139 0.00356012 -6.07809e-23)
(2.01133 0.00212856 0)
(2.01129 0.000705946 0)
(1.99939 -0.000132555 -1.7464e-22)
(1.99929 -0.0003839 1.75203e-22)
(1.99913 -0.000620542 0)
(1.9989 -0.000832392 -1.76829e-22)
(1.99859 -0.00100961 1.76831e-22)
(1.99819 -0.00114145 0)
(1.99772 -0.00121652 1.8043e-22)
(1.99716 -0.00122246 1.58332e-24)
(1.99652 -0.00114637 -3.65974e-22)
(1.9958 -0.000974421 -1.8779e-22)
(1.99499 -0.000691598 1.83889e-22)
(1.99411 -0.000282548 1.88119e-22)
(1.99316 0.000269839 0)
(1.99214 0.000981734 0)
(1.99106 0.00186913 -3.70811e-22)
(1.98995 0.00295131 -1.19221e-21)
(1.98881 0.00424191 1.59022e-21)
(1.98768 0.00575163 -1.2159e-21)
(1.98659 0.0074949 -4.38265e-24)
(1.98556 0.00947273 1.68758e-21)
(1.98465 0.0116826 5.5895e-21)
(1.9839 0.0141182 -8.09068e-22)
(1.98335 0.0167387 6.24551e-22)
(1.98305 0.0195167 2.05653e-22)
(1.98305 0.0224005 0)
(1.98338 0.0253277 -1.83237e-22)
(1.98406 0.0282253 0)
(1.9851 0.0310145 1.6586e-22)
(1.9865 0.0336112 -1.09812e-23)
(1.98823 0.0359387 -6.02696e-22)
(1.99024 0.0379187 8.10169e-22)
(1.99246 0.0394889 -2.81243e-23)
(1.99484 0.0406088 -2.27935e-22)
(1.99729 0.0412567 1.08647e-24)
(1.99972 0.0414327 -6.30591e-23)
(2.00207 0.041157 2.0328e-22)
(2.00427 0.0404677 0)
(2.00627 0.0394159 0)
(2.00804 0.0380602 -3.54849e-23)
(2.00957 0.0364616 2.15796e-23)
(2.01084 0.0346784 1.70248e-23)
(2.01187 0.032764 1.33569e-23)
(2.01268 0.0307649 1.37466e-23)
(2.01329 0.0287204 -2.15535e-22)
(2.01372 0.02666 1.49664e-21)
(2.014 0.0246127 -6.71408e-22)
(2.01415 0.0225925 -1.47611e-22)
(2.0142 0.0206169 0)
(2.01416 0.0186881 0)
(2.01407 0.0168201 -1.97911e-22)
(2.01393 0.0150056 -5.65268e-23)
(2.01376 0.0132501 5.65739e-23)
(2.01359 0.011549 0)
(2.01341 0.0098987 6.23479e-23)
(2.01324 0.00829436 -6.23956e-23)
(2.01309 0.00672939 0)
(2.01296 0.00519794 0)
(2.01286 0.0036924 -6.61252e-23)
(2.01279 0.00220662 6.61723e-23)
(2.01273 0.000731602 0)
(1.9997 -0.000182958 0)
(1.99958 -0.000534332 0)
(1.9994 -0.000870642 1.75322e-22)
(1.99914 -0.00118163 -1.75308e-22)
(1.99879 -0.00145701 0)
(1.99834 -0.00168551 0)
(1.9978 -0.0018552 -1.80332e-22)
(1.99717 -0.00195276 -1.85215e-24)
(1.99643 -0.00196414 3.66627e-22)
(1.9956 -0.00187405 -1.84426e-22)
(1.99468 -0.00166561 -3.78598e-22)
(1.99366 -0.00132108 1.86109e-22)
(1.99254 -0.000820669 3.84445e-22)
(1.99134 -0.00014434 -3.96087e-22)
(1.99007 0.000728239 -2.40867e-21)
(1.98875 0.00181953 4.0243e-22)
(1.98738 0.00315118 -8.27091e-22)
(1.98601 0.00473627 1.86894e-21)
(1.98466 0.00659679 -8.36444e-22)
(1.98338 0.00874114 -1.66488e-21)
(1.98221 0.0111681 -6.7937e-21)
(1.98123 0.0138813 1.37325e-20)
(1.98048 0.0168384 -4.1286e-22)
(1.98003 0.0200044 0)
(1.97993 0.0233214 0)
(1.98024 0.0267152 0)
(1.98099 0.0300969 0)
(1.98219 0.0333688 1.63877e-22)
(1.98383 0.0364252 -1.8668e-22)
(1.9859 0.0391682 -3.0085e-23)
(1.98832 0.0414973 -1.014e-21)
(1.99102 0.0433322 -5.02364e-22)
(1.9939 0.0446213 3.26491e-22)
(1.99686 0.0453386 -3.17153e-23)
(1.9998 0.0454866 -3.82728e-22)
(2.00262 0.0450948 3.11373e-23)
(2.00524 0.0442161 1.05483e-22)
(2.00759 0.0429198 -7.35031e-24)
(2.00965 0.0412839 -4.85667e-23)
(2.01139 0.0393867 0)