/*--------------------------------*- C++ -*----------------------------------*\
  =========                 |
  \\      /  F ield         | OpenFOAM: The Open Source CFD Toolbox
   \\    /   O peration     | Website:  https://openfoam.org
    \\  /    A nd           | Version:  12
     \\/     M anipulation  |
\*---------------------------------------------------------------------------*/
FoamFile
{
    format      ascii;
    class       volScalarField;
    location    "100";
    object      k;
}
// * * * * * * * * * * * * * * * * * * * * * * * * * * * * * * * * * * * * * //

dimensions      [0 2 -2 0 0 0 0];

internalField   nonuniform List<scalar> 
16227
(
0.00914646
0.00914648
0.00914647
0.00914651
0.0091465
0.00914654
0.00914653
0.00914651
0.00914651
0.00914653
0.00914657
0.00914659
0.00914665
0.00914665
0.00914665
0.00914665
0.00914665
0.00914665
0.00914665
0.00914665
0.00914665
0.00914665
0.00914665
0.00914665
0.00914665
0.00914665
0.00914665
0.00914666
0.00914667
0.00914664
0.00914665
0.00914665
0.00914665
0.00914665
0.00914665
0.00914665
0.00914665
0.00914665
0.00914665
0.00914665
0.00914665
0.00914665
0.00914665
0.00914665
0.00914665
0.00914665
0.00914665
0.00914663
0.00914662
0.00914662
0.00914662
0.00914661
0.00914654
0.00914654
0.00914649
0.00914649
0.00914651
0.00914649
0.00914647
0.00914646
0.00848122
0.00848124
0.00848123
0.00848126
0.00848127
0.0084813
0.00848129
0.00848127
0.00848128
0.00848129
0.00848134
0.00848136
0.00848151
0.00848157
0.00848158
0.00848158
0.00848158
0.00848158
0.00848158
0.00848158
0.00848159
0.00848161
0.00848161
0.00848161
0.00848161
0.00848161
0.00848161
0.0084816
0.00848158
0.00848153
0.00848159
0.00848161
0.00848161
0.00848161
0.00848161
0.0084816
0.00848158
0.00848158
0.00848158
0.00848158
0.00848158
0.00848159
0.00848159
0.00848157
0.00848157
0.00848156
0.00848156
0.00848156
0.00848156
0.00848155
0.00848152
0.00848146
0.00848135
0.00848133
0.0084813
0.00848127
0.00848131
0.00848123
0.00848125
0.00848122
0.00790073
0.00790075
0.00790076
0.00790077
0.00790076
0.00790085
0.00790081
0.0079008
0.0079008
0.00790081
0.00790086
0.00790088
0.00790113
0.00790119
0.0079012
0.00790121
0.00790121
0.00790121
0.00790123
0.00790118
0.00790122
0.00790123
0.00790122
0.00790122
0.00790122
0.00790122
0.00790122
0.00790123
0.00790122
0.00790115
0.00790121
0.00790123
0.00790123
0.00790124
0.00790124
0.00790124
0.00790125
0.00790124
0.00790123
0.00790123
0.00790123
0.00790124
0.00790123
0.00790121
0.00790122
0.00790122
0.00790121
0.00790121
0.0079012
0.00790117
0.00790114
0.00790094
0.00790086
0.00790085
0.00790083
0.00790082
0.00790086
0.00790076
0.00790077
0.00790075
0.00739019
0.00739021
0.00739021
0.00739022
0.00739023
0.0073903
0.0073903
0.00739026
0.00739027
0.00739026
0.00739031
0.00739037
0.00739063
0.00739071
0.00739073
0.00739074
0.00739075
0.00739077
0.0073907
0.00739058
0.00739069
0.00739074
0.00739073
0.00739074
0.00739075
0.00739075
0.00739075
0.00739075
0.00739073
0.00739065
0.00739073
0.00739076
0.00739076
0.00739076
0.00739077
0.00739078
0.00739079
0.00739079
0.0073908
0.00739079
0.0073908
0.0073908
0.00739079
0.0073908
0.00739079
0.00739079
0.00739079
0.00739078
0.00739079
0.00739076
0.00739063
0.00739044
0.00739034
0.00739036
0.00739036
0.00739037
0.00739034
0.00739027
0.00739027
0.00739025
0.00693799
0.00693801
0.00693801
0.00693803
0.00693803
0.00693809
0.00693812
0.00693806
0.00693807
0.00693807
0.00693811
0.00693817
0.00693842
0.00693855
0.00693857
0.00693857
0.00693858
0.00693856
0.00693834
0.00693828
0.00693848
0.00693855
0.00693855
0.00693855
0.00693854
0.00693854
0.00693854
0.00693855
0.00693853
0.00693845
0.00693854
0.00693858
0.0069386
0.00693861
0.00693861
0.00693863
0.00693865
0.00693867
0.00693868
0.00693868
0.0069387
0.00693871
0.00693871
0.00693871
0.00693871
0.00693872
0.00693872
0.00693872
0.00693871
0.00693863
0.00693838
0.00693827
0.00693819
0.00693822
0.00693824
0.00693828
0.00693822
0.00693815
0.00693815
0.00693813
0.00653493
0.00653495
0.00653494
0.00653496
0.00653496
0.00653501
0.00653505
0.006535
0.00653498
0.00653497
0.00653498
0.00653502
0.00653514
0.00653542
0.00653549
0.00653551
0.00653551
0.00653541
0.00653518
0.00653514
0.00653537
0.00653543
0.00653543
0.00653542
0.00653543
0.00653544
0.00653544
0.00653544
0.00653542
0.00653534
0.00653545
0.00653549
0.00653552
0.00653555
0.00653558
0.0065356
0.00653563
0.00653566
0.00653568
0.0065357
0.00653572
0.00653573
0.00653575
0.00653577
0.00653577
0.00653578
0.00653578
0.00653579
0.00653578
0.00653563
0.00653539
0.00653527
0.00653523
0.00653528
0.00653532
0.00653531
0.00653525
0.00653519
0.00653519
0.00653517
0.0061736
0.00617362
0.00617361
0.00617362
0.00617362
0.00617366
0.0061737
0.00617368
0.00617364
0.00617363
0.00617361
0.00617361
0.00617372
0.00617398
0.00617412
0.00617414
0.00617411
0.00617383
0.00617371
0.00617372
0.00617395
0.00617401
0.006174
0.006174
0.006174
0.006174
0.006174
0.00617402
0.00617401
0.00617393
0.00617405
0.00617411
0.00617415
0.00617419
0.00617424
0.00617428
0.00617432
0.00617437
0.00617441
0.00617445
0.00617448
0.00617451
0.00617454
0.00617456
0.00617458
0.00617459
0.0061746
0.00617461
0.00617453
0.00617426
0.00617413
0.00617404
0.00617404
0.00617411
0.00617412
0.00617411
0.00617405
0.006174
0.006174
0.00617398
0.00584801
0.00584801
0.00584801
0.00584803
0.00584801
0.00584804
0.00584808
0.00584807
0.00584802
0.00584798
0.00584796
0.00584792
0.00584796
0.0058481
0.00584839
0.00584847
0.00584841
0.00584808
0.00584798
0.00584799
0.00584823
0.00584829
0.00584827
0.00584826
0.00584825
0.00584825
0.00584827
0.00584828
0.00584827
0.0058482
0.00584834
0.00584842
0.00584849
0.00584854
0.00584861
0.00584868
0.00584874
0.0058488
0.00584887
0.00584892
0.00584899
0.00584902
0.00584906
0.0058491
0.00584914
0.00584915
0.00584917
0.00584917
0.00584903
0.00584877
0.00584865
0.0058486
0.00584865
0.00584868
0.00584867
0.00584867
0.00584862
0.00584857
0.00584858
0.00584856
0.00555322
0.00555322
0.00555322
0.00555322
0.00555321
0.00555323
0.00555326
0.00555324
0.00555322
0.00555316
0.00555311
0.00555305
0.00555306
0.00555315
0.00555349
0.00555359
0.00555344
0.00555313
0.00555305
0.00555304
0.00555327
0.00555332
0.0055533
0.00555328
0.00555327
0.00555327
0.00555328
0.00555331
0.00555332
0.00555325
0.00555341
0.00555351
0.00555359
0.00555368
0.00555377
0.00555386
0.00555395
0.00555405
0.00555413
0.00555421
0.00555428
0.00555436
0.00555441
0.00555446
0.0055545
0.00555454
0.00555456
0.00555449
0.00555422
0.00555409
0.00555401
0.00555404
0.00555405
0.00555408
0.00555407
0.00555407
0.00555403
0.00555398
0.00555398
0.00555397
0.00528516
0.00528516
0.00528515
0.00528516
0.00528514
0.00528515
0.00528517
0.00528514
0.00528511
0.00528508
0.005285
0.00528492
0.00528492
0.00528501
0.00528528
0.00528537
0.00528506
0.00528487
0.0052848
0.0052848
0.00528502
0.00528505
0.00528502
0.005285
0.00528498
0.00528499
0.00528501
0.00528503
0.00528505
0.005285
0.00528518
0.0052853
0.00528541
0.00528553
0.00528565
0.00528577
0.00528589
0.00528601
0.00528614
0.00528624
0.00528633
0.00528642
0.00528651
0.00528658
0.00528664
0.00528668
0.0052867
0.0052866
0.00528632
0.00528621
0.00528619
0.0052862
0.00528621
0.00528624
0.00528624
0.00528624
0.00528619
0.00528616
0.00528615
0.00528615
0.00504044
0.00504045
0.00504044
0.00504043
0.00504042
0.00504042
0.00504042
0.00504038
0.00504034
0.0050403
0.00504024
0.00504012
0.00504006
0.00504009
0.00504019
0.0050404
0.00504011
0.00503996
0.00503989
0.00503987
0.00504002
0.00504008
0.00504006
0.00504002
0.00504
0.00504
0.00504002
0.00504006
0.00504009
0.00504006
0.00504026
0.00504041
0.00504055
0.0050407
0.00504086
0.00504102
0.00504118
0.00504133
0.00504148
0.00504162
0.00504174
0.00504186
0.00504197
0.00504205
0.00504212
0.00504217
0.00504212
0.00504198
0.00504181
0.00504173
0.00504172
0.00504173
0.00504174
0.00504178
0.00504178
0.00504177
0.00504174
0.00504169
0.0050417
0.00504169
0.00481622
0.00481622
0.00481621
0.0048162
0.00481617
0.00481617
0.00481615
0.00481612
0.00481607
0.004816
0.00481593
0.00481583
0.00481572
0.00481569
0.00481574
0.0048159
0.00481568
0.00481553
0.00481542
0.00481538
0.00481537
0.00481553
0.00481553
0.00481549
0.00481546
0.00481546
0.00481549
0.00481553
0.00481558
0.00481557
0.0048158
0.00481599
0.00481616
0.00481635
0.00481654
0.00481674
0.00481694
0.00481714
0.00481732
0.00481749
0.00481765
0.00481779
0.00481792
0.00481804
0.00481812
0.00481814
0.004818
0.00481793
0.00481784
0.00481777
0.00481777
0.00481779
0.0048178
0.00481783
0.00481783
0.00481783
0.00481779
0.00481775
0.00481775
0.00481775
0.00461007
0.00461007
0.00461006
0.00461004
0.00461002
0.00461
0.00460997
0.00460993
0.00460986
0.00460979
0.00460971
0.00460959
0.00460947
0.00460936
0.00460931
0.0046093
0.00460926
0.00460916
0.00460903
0.00460895
0.00460888
0.00460906
0.00460906
0.00460901
0.00460897
0.00460897
0.00460899
0.00460905
0.00460912
0.00460913
0.00460939
0.00460961
0.00460982
0.00461006
0.0046103
0.00461055
0.00461078
0.00461102
0.00461126
0.00461146
0.00461166
0.00461184
0.00461199
0.00461212
0.0046122
0.0046122
0.00461209
0.00461207
0.00461197
0.00461192
0.00461192
0.00461194
0.00461196
0.00461198
0.00461199
0.00461198
0.00461195
0.00461191
0.00461191
0.0046119
0.00441995
0.00441996
0.00441994
0.00441991
0.00441988
0.00441986
0.00441982
0.00441976
0.00441968
0.0044196
0.0044195
0.00441936
0.00441924
0.00441911
0.00441897
0.00441892
0.00441891
0.00441879
0.00441865
0.00441854
0.00441844
0.0044186
0.00441858
0.00441851
0.00441847
0.00441846
0.00441849
0.00441855
0.00441864
0.00441868
0.00441897
0.00441923
0.00441949
0.00441977
0.00442007
0.00442036
0.00442067
0.00442095
0.00442122
0.00442149
0.00442171
0.00442192
0.0044221
0.00442224
0.00442227
0.00442224
0.00442224
0.00442223
0.00442216
0.00442213
0.00442213
0.00442215
0.00442217
0.00442218
0.00442219
0.00442218
0.00442215
0.00442212
0.00442212
0.00442211
0.00424411
0.00424411
0.00424409
0.00424406
0.00424402
0.00424399
0.00424394
0.00424387
0.00424379
0.00424368
0.00424356
0.00424341
0.00424326
0.00424311
0.00424297
0.00424288
0.00424284
0.00424269
0.00424252
0.00424237
0.00424225
0.00424237
0.00424233
0.00424224
0.00424219
0.00424217
0.0042422
0.00424228
0.00424239
0.00424246
0.00424279
0.0042431
0.00424341
0.00424375
0.0042441
0.00424446
0.00424481
0.00424516
0.00424548
0.00424579
0.00424606
0.0042463
0.0042465
0.00424662
0.00424658
0.00424664
0.00424667
0.00424668
0.00424664
0.00424662
0.00424664
0.00424665
0.00424666
0.00424668
0.00424668
0.00424667
0.00424664
0.00424662
0.00424661
0.0042466
0.00408103
0.00408102
0.004081
0.00408097
0.00408092
0.00408088
0.00408082
0.00408073
0.00408064
0.00408052
0.00408038
0.00408021
0.00408005
0.00407987
0.0040797
0.00407959
0.0040795
0.00407934
0.00407912
0.00407894
0.0040788
0.00407883
0.0040788
0.0040787
0.00407863
0.0040786
0.00407864
0.00407873
0.00407885
0.00407896
0.00407933
0.00407969
0.00408006
0.00408047
0.00408088
0.00408131
0.00408173
0.00408214
0.00408252
0.00408287
0.00408318
0.00408346
0.00408369
0.00408379
0.00408378
0.00408385
0.0040839
0.00408389
0.00408387
0.00408388
0.00408391
0.00408393
0.00408394
0.00408395
0.00408395
0.00408394
0.0040839
0.00408388
0.00408387
0.00408386
0.00392939
0.00392938
0.00392936
0.00392932
0.00392927
0.00392922
0.00392915
0.00392905
0.00392894
0.00392881
0.00392865
0.00392846
0.00392828
0.00392807
0.00392788
0.00392773
0.00392762
0.00392741
0.00392717
0.00392693
0.00392673
0.0039266
0.00392665
0.00392657
0.00392648
0.00392644
0.00392647
0.00392657
0.00392672
0.00392687
0.00392728
0.0039277
0.00392815
0.00392862
0.00392911
0.00392961
0.00393011
0.00393058
0.00393102
0.00393142
0.00393179
0.00393209
0.00393227
0.00393236
0.00393245
0.00393255
0.00393263
0.00393261
0.00393261
0.00393264
0.00393266
0.00393268
0.00393268
0.00393269
0.00393268
0.00393267
0.00393263
0.0039326
0.0039326
0.00393258
0.00378807
0.00378806
0.00378804
0.00378799
0.00378793
0.00378787
0.00378779
0.00378768
0.00378756
0.00378741
0.00378724
0.00378703
0.00378681
0.00378659
0.00378636
0.00378618
0.00378603
0.0037858
0.0037855
0.00378522
0.00378497
0.00378476
0.0037848
0.0037847
0.00378459
0.00378454
0.00378457
0.00378468
0.00378485
0.00378504
0.00378551
0.003786
0.00378652
0.00378708
0.00378766
0.00378824
0.00378882
0.00378936
0.00378987
0.00379033
0.00379073
0.00379103
0.00379114
0.00379131
0.00379147
0.00379161
0.00379168
0.00379169
0.00379169
0.00379172
0.00379174
0.00379175
0.00379175
0.00379175
0.00379174
0.00379172
0.00379168
0.00379165
0.00379164
0.00379163
0.00365607
0.00365606
0.00365603
0.00365598
0.00365592
0.00365585
0.00365576
0.00365564
0.0036555
0.00365533
0.00365514
0.00365492
0.00365467
0.00365442
0.00365416
0.00365394
0.00365375
0.00365347
0.00365315
0.00365282
0.00365252
0.00365227
0.00365221
0.00365211
0.00365197
0.0036519
0.00365192
0.00365205
0.00365225
0.00365249
0.00365302
0.00365359
0.0036542
0.00365485
0.00365553
0.00365621
0.00365687
0.00365749
0.00365806
0.00365857
0.00365901
0.00365932
0.00365947
0.00365968
0.00365987
0.00366001
0.00366006
0.00366007
0.00366011
0.00366014
0.00366016
0.00366016
0.00366015
0.00366015
0.00366012
0.0036601
0.00366005
0.00366002
0.00366001
0.00366
0.00353253
0.00353251
0.00353248
0.00353243
0.00353235
0.00353228
0.00353218
0.00353204
0.00353189
0.00353171
0.0035315
0.00353125
0.00353099
0.00353071
0.00353042
0.00353015
0.0035299
0.00352959
0.00352923
0.00352886
0.00352848
0.00352817
0.00352793
0.00352788
0.00352776
0.00352766
0.00352767
0.0035278
0.00352805
0.00352834
0.00352894
0.0035296
0.00353032
0.00353108
0.00353186
0.00353265
0.0035334
0.0035341
0.00353472
0.00353525
0.0035357
0.00353602
0.00353629
0.00353655
0.00353676
0.00353689
0.00353693
0.00353696
0.003537
0.00353703
0.00353704
0.00353703
0.00353701
0.00353699
0.00353696
0.00353692
0.00353688
0.00353684
0.00353683
0.00353681
0.00341666
0.00341665
0.00341661
0.00341655
0.00341647
0.00341639
0.00341628
0.00341614
0.00341597
0.00341577
0.00341554
0.00341528
0.00341499
0.00341467
0.00341434
0.003414
0.00341369
0.00341338
0.00341299
0.00341256
0.00341214
0.00341174
0.00341141
0.00341134
0.00341118
0.00341105
0.00341105
0.00341119
0.00341147
0.00341183
0.00341251
0.00341328
0.00341411
0.003415
0.00341591
0.00341681
0.00341766
0.00341843
0.00341911
0.00341969
0.00342012
0.00342051
0.00342086
0.00342115
0.00342136
0.00342145
0.0034215
0.00342156
0.0034216
0.00342162
0.00342161
0.00342159
0.00342156
0.00342153
0.00342149
0.00342144
0.00342139
0.00342135
0.00342133
0.00342131
0.0033078
0.00330779
0.00330775
0.00330769
0.0033076
0.00330751
0.00330739
0.00330724
0.00330705
0.00330684
0.00330659
0.00330631
0.003306
0.00330566
0.00330528
0.0033049
0.00330454
0.00330419
0.00330375
0.00330326
0.00330278
0.00330232
0.00330192
0.00330176
0.00330156
0.0033014
0.00330138
0.00330153
0.00330185
0.00330229
0.00330307
0.00330396
0.00330494
0.00330597
0.00330702
0.00330804
0.00330897
0.00330981
0.00331057
0.00331122
0.00331169
0.00331213
0.00331251
0.00331281
0.003313
0.00331308
0.00331314
0.0033132
0.00331322
0.00331322
0.0033132
0.00331316
0.00331311
0.00331307
0.00331301
0.00331296
0.0033129
0.00331285
0.00331283
0.00331281
0.00320535
0.00320533
0.00320529
0.00320522
0.00320513
0.00320503
0.00320491
0.00320474
0.00320455
0.00320432
0.00320406
0.00320375
0.00320342
0.00320305
0.00320265
0.00320222
0.00320181
0.00320139
0.00320091
0.00320038
0.00319982
0.00319928
0.00319882
0.00319849
0.00319838
0.00319818
0.00319814
0.00319831
0.00319869
0.00319921
0.00320011
0.00320117
0.0032023
0.00320349
0.00320469
0.00320585
0.00320676
0.00320767
0.00320845
0.00320915
0.00320973
0.00321023
0.00321062
0.00321089
0.00321104
0.00321114
0.00321121
0.00321125
0.00321126
0.00321124
0.0032112
0.00321114
0.00321107
0.00321101
0.00321094
0.00321087
0.00321081
0.00321075
0.00321072
0.0032107
0.00310876
0.00310875
0.0031087
0.00310863
0.00310854
0.00310843
0.00310829
0.00310812
0.00310791
0.00310768
0.0031074
0.00310707
0.00310672
0.00310632
0.00310589
0.00310542
0.00310492
0.00310444
0.00310393
0.00310336
0.00310274
0.00310213
0.00310158
0.00310127
0.00314803
0.00314793
0.00314787
0.00314805
0.00314846
0.00314904
0.00315002
0.00315117
0.0031524
0.00315369
0.00315498
0.00315621
0.00311129
0.00311154
0.00311238
0.00311314
0.00311378
0.00311429
0.00311466
0.00311488
0.00311502
0.00311512
0.00311519
0.00311521
0.00311518
0.00311514
0.00311507
0.00311498
0.00311489
0.00311481
0.00311473
0.00311465
0.00311457
0.00311451
0.00311447
0.00311445
0.00301757
0.00301755
0.0030175
0.00301743
0.00301733
0.00301722
0.00301708
0.00301689
0.00301668
0.00301643
0.00301613
0.00301579
0.00301542
0.003015
0.00301454
0.00301403
0.00301348
0.0030129
0.00301234
0.00301175
0.00301108
0.00301039
0.00300988
0.00305384
0.0030519
0.0030519
0.00305182
0.00305201
0.0030525
0.00305322
0.00305438
0.00305575
0.0030572
0.00305869
0.00306016
0.00306145
0.00306457
0.00302166
0.00302195
0.00302271
0.00302335
0.00302383
0.00302416
0.00302435
0.00302447
0.00302455
0.00302458
0.00302457
0.00302451
0.00302443
0.00302433
0.00302422
0.00302411
0.003024
0.0030239
0.0030238
0.00302372
0.00302365
0.0030236
0.00302357
0.00293134
0.00293132
0.00293127
0.00293119
0.0029311
0.00293097
0.00293082
0.00293064
0.00293041
0.00293015
0.00292985
0.00292949
0.0029291
0.00292866
0.00292817
0.00292763
0.00292704
0.00292641
0.00292578
0.00292513
0.00292441
0.00292366
0.00292317
0.00296312
0.00296132
0.00298321
0.00298319
0.00298343
0.00298403
0.0029849
0.00298624
0.00298778
0.0029894
0.00299104
0.00299264
0.00297284
0.00297539
0.00293691
0.0029367
0.00293742
0.00293801
0.00293843
0.00293868
0.00293884
0.00293894
0.00293898
0.00293897
0.00293891
0.00293881
0.00293869
0.00293855
0.00293841
0.00293827
0.00293814
0.00293802
0.00293791
0.00293781
0.00293773
0.00293768
0.00293765
0.00284969
0.00284967
0.00284962
0.00284954
0.00284944
0.00284931
0.00284916
0.00284896
0.00284873
0.00284846
0.00284815
0.00284778
0.00284737
0.00284692
0.00284641
0.00284584
0.00284521
0.00284454
0.00284382
0.0028431
0.00284236
0.00284159
0.00284122
0.00287743
0.00287581
0.00289567
0.0028959
0.00289631
0.00289717
0.00289839
0.00289998
0.00290176
0.00290357
0.00290535
0.00290697
0.00289
0.00289151
0.00285708
0.00285634
0.00285691
0.00285738
0.00285769
0.00285788
0.00285799
0.00285805
0.00285803
0.00285796
0.00285784
0.00285769
0.00285753
0.00285735
0.00285718
0.00285701
0.00285685
0.00285671
0.00285658
0.00285646
0.00285637
0.00285631
0.00285628
0.00277227
0.00277225
0.0027722
0.00277212
0.00277201
0.00277189
0.00277173
0.00277153
0.00277129
0.00277101
0.00277069
0.00277031
0.00276989
0.00276943
0.0027689
0.00276831
0.00276766
0.00276695
0.00276618
0.00276539
0.00276459
0.00276384
0.0027637
0.00279656
0.00279504
0.00281317
0.00281387
0.00281485
0.00281649
0.00281848
0.00282062
0.0028226
0.00282434
0.00282586
0.00282729
0.0028123
0.00281291
0.0027819
0.00278054
0.00278085
0.00278114
0.00278132
0.00278143
0.00278147
0.00278144
0.00278134
0.0027812
0.00278102
0.00278081
0.0027806
0.00278038
0.00278016
0.00277996
0.00277977
0.00277961
0.00277945
0.00277932
0.00277922
0.00277916
0.00277912
0.00269878
0.00269875
0.0026987
0.00269862
0.00269852
0.00269838
0.00269822
0.00269802
0.00269777
0.00269749
0.00269716
0.00269678
0.00269636
0.00269588
0.00269534
0.00269474
0.00269407
0.00269334
0.00269255
0.00269171
0.00269086
0.00269013
0.00269031
0.00272022
0.00271901
0.00273599
0.00273732
0.00274018
0.00274427
0.00274873
0.00275212
0.00275371
0.00275404
0.00275394
0.00275413
0.00274014
0.00273953
0.00271114
0.00270903
0.00270894
0.00270901
0.00270905
0.00270903
0.00270894
0.0027088
0.0027086
0.00270837
0.00270812
0.00270785
0.00270758
0.00270731
0.00270705
0.00270681
0.0027066
0.0027064
0.00270623
0.00270608
0.00270597
0.0027059
0.00270585
0.00262893
0.0026289
0.00262884
0.00262877
0.00262866
0.00262852
0.00262836
0.00262815
0.00262791
0.00262762
0.00262729
0.00262691
0.00262647
0.00262599
0.00262545
0.00262483
0.00262416
0.00262342
0.00262262
0.00262178
0.00262094
0.00262025
0.00262081
0.00264818
0.00264771
0.00266416
0.00266777
0.0026758
0.00268883
0.00270282
0.00270975
0.00270687
0.00269951
0.00269304
0.00268887
0.00267392
0.00267136
0.00264464
0.00264166
0.00264104
0.00264078
0.00264058
0.00264036
0.00264011
0.00263983
0.00263952
0.00263919
0.00263885
0.00263852
0.00263818
0.00263786
0.00263756
0.00263728
0.00263703
0.00263681
0.00263662
0.00263645
0.00263633
0.00263625
0.0026362
0.00256245
0.00256242
0.00256237
0.00256229
0.00256218
0.00256205
0.00256188
0.00256167
0.00256143
0.00256114
0.00256081
0.00256042
0.00255999
0.0025595
0.00255896
0.00255835
0.00255768
0.00255694
0.00255615
0.00255534
0.00255455
0.00255399
0.00255496
0.00258017
0.00258125
0.00259862
0.00260791
0.00263304
0.00268482
0.00275068
0.00276998
0.00273061
0.00268206
0.00265089
0.00263431
0.00261453
0.00260845
0.00258225
0.0025782
0.00257686
0.00257615
0.00257563
0.00257516
0.00257471
0.00257427
0.00257383
0.0025734
0.00257297
0.00257255
0.00257215
0.00257177
0.00257142
0.0025711
0.00257082
0.00257057
0.00257036
0.00257018
0.00257004
0.00256995
0.0025699
0.00249913
0.0024991
0.00249904
0.00249897
0.00249886
0.00249872
0.00249856
0.00249835
0.0024981
0.00249782
0.00249748
0.0024971
0.00249667
0.00249619
0.00249564
0.00249504
0.00249438
0.00249365
0.0024929
0.00249213
0.00249144
0.00249109
0.00249262
0.0025161
0.00251955
0.00253988
0.00256419
0.00264927
0.00281883
0.00298459
0.00302043
0.00292177
0.00276997
0.00264432
0.00259467
0.00256275
0.00255077
0.00252383
0.00251837
0.0025161
0.00251483
0.00251392
0.00251316
0.00251249
0.00251187
0.00251129
0.00251073
0.00251021
0.00250971
0.00250924
0.00250881
0.00250841
0.00250805
0.00250773
0.00250745
0.00250722
0.00250702
0.00250687
0.00250677
0.00250672
0.00243874
0.00243871
0.00243865
0.00243858
0.00243847
0.00243833
0.00243817
0.00243796
0.00243772
0.00243743
0.00243711
0.00243672
0.0024363
0.00243582
0.00243529
0.00243469
0.00243404
0.00243335
0.00243262
0.00243192
0.00243137
0.00243126
0.00243339
0.00245578
0.00246257
0.002488
0.00254589
0.00275939
0.00313664
0.00402542
0.00400956
0.0033973
0.00296677
0.00270083
0.00257286
0.00251895
0.00249814
0.00246891
0.00246178
0.00245845
0.00245655
0.00245519
0.00245411
0.0024532
0.00245239
0.00245166
0.00245098
0.00245035
0.00244977
0.00244923
0.00244873
0.00244829
0.00244789
0.00244754
0.00244723
0.00244698
0.00244676
0.0024466
0.00244649
0.00244644
0.00238109
0.00238106
0.00238101
0.00238093
0.00238082
0.00238069
0.00238053
0.00238032
0.00238008
0.0023798
0.00237948
0.0023791
0.00237868
0.00237821
0.00237768
0.0023771
0.00237647
0.0023758
0.00237512
0.0023745
0.00237408
0.00237423
0.00237693
0.00239867
0.00240911
0.00244193
0.00255095
0.00290737
0.00417822
0.00527993
0.0032524
0.00281382
0.00256566
0.002481
0.00244939
0.00241693
0.00240801
0.00240357
0.002401
0.00239918
0.00239777
0.0023966
0.0023956
0.00239471
0.00239391
0.00239318
0.00239251
0.0023919
0.00239135
0.00239086
0.00239042
0.00239003
0.00238971
0.00238943
0.0023892
0.00238903
0.00238892
0.00238886
0.00232601
0.00232597
0.00232592
0.00232585
0.00232574
0.00232561
0.00232545
0.00232525
0.00232501
0.00232473
0.00232441
0.00232404
0.00232363
0.00232317
0.00232266
0.00232209
0.00232148
0.00232083
0.00232019
0.00231963
0.00231933
0.00231971
0.00232286
0.00234419
0.00235795
0.00239849
0.00255272
0.0030186
0.00629413
0.0555996
0.00611622
0.00347207
0.00290792
0.00255936
0.00244491
0.00240307
0.00236732
0.00235669
0.00235121
0.00234801
0.00234573
0.00234398
0.00234256
0.00234136
0.00234031
0.00233938
0.00233855
0.0023378
0.00233712
0.00233651
0.00233597
0.00233549
0.00233507
0.00233472
0.00233442
0.00233418
0.002334
0.00233388
0.00233381
0.00227332
0.00227329
0.00227324
0.00227316
0.00227306
0.00227293
0.00227277
0.00227258
0.00227235
0.00227207
0.00227176
0.0022714
0.00227099
0.00227054
0.00227004
0.00226948
0.00226889
0.00226826
0.00226765
0.00226714
0.00226691
0.0022675
0.00227101
0.00229205
0.00230851
0.00235515
0.00253657
0.00305637
0.00785783
0.0612596
0.0625549
0.00509103
0.00358251
0.00294312
0.0025413
0.00240697
0.00235773
0.00231945
0.00230741
0.00230106
0.0022973
0.00229459
0.00229252
0.00229086
0.00228947
0.00228826
0.00228721
0.00228628
0.00228545
0.0022847
0.00228403
0.00228344
0.00228292
0.00228248
0.0022821
0.00228178
0.00228152
0.00228133
0.0022812
0.00228113
0.00222289
0.00222286
0.00222281
0.00222273
0.00222263
0.00222251
0.00222235
0.00222216
0.00222193
0.00222167
0.00222136
0.00222101
0.00222061
0.00222017
0.00221967
0.00221913
0.00221854
0.00221791
0.00221732
0.00221681
0.00221662
0.00221741
0.00222119
0.00224196
0.00226064
0.00231159
0.00250494
0.00300019
0.00717605
0.0597468
0.0626318
0.00466826
0.00361811
0.00292977
0.00251007
0.0023658
0.00231255
0.00227293
0.00225986
0.00225285
0.00224864
0.00224555
0.00224321
0.00224132
0.00223974
0.0022384
0.00223723
0.0022362
0.00223529
0.00223448
0.00223376
0.00223313
0.00223257
0.0022321
0.00223169
0.00223135
0.00223108
0.00223087
0.00223074
0.00223067
0.00217457
0.00217454
0.00217449
0.00217442
0.00217432
0.0021742
0.00217404
0.00217386
0.00217364
0.00217338
0.00217308
0.00217273
0.00217235
0.00217191
0.00217142
0.00217087
0.00217026
0.00216961
0.002169
0.00216852
0.00216841
0.00216939
0.00217344
0.00219395
0.00221485
0.0022697
0.00247432
0.00296623
0.00684114
0.0462029
0.0378323
0.00449383
0.00358808
0.00288138
0.00246719
0.00232159
0.00226747
0.00222758
0.00221384
0.0022064
0.00220184
0.00219845
0.00219586
0.00219377
0.00219204
0.00219057
0.00218929
0.00218817
0.00218719
0.00218632
0.00218555
0.00218487
0.00218429
0.00218378
0.00218335
0.002183
0.00218271
0.0021825
0.00218236
0.00218228
0.00212823
0.0021282
0.00212816
0.00212809
0.00212799
0.00212787
0.00212773
0.00212754
0.00212733
0.00212708
0.00212679
0.00212645
0.00212607
0.00212563
0.00212512
0.00212454
0.00212391
0.00212328
0.0021227
0.00212225
0.00212218
0.00212338
0.00212765
0.00214805
0.00217231
0.00223018
0.00245068
0.0030571
0.0058416
0.0359978
0.023756
0.00446489
0.00349769
0.00280641
0.00241775
0.00227539
0.00222265
0.00218342
0.00216927
0.00216158
0.00215674
0.00215311
0.00215033
0.00214808
0.00214622
0.00214463
0.00214326
0.00214206
0.00214101
0.00214009
0.00213928
0.00213856
0.00213794
0.00213741
0.00213696
0.00213659
0.00213629
0.00213607
0.00213593
0.00213584
0.00208377
0.00208374
0.00208369
0.00208362
0.00208353
0.00208342
0.00208328
0.0020831
0.00208289
0.00208265
0.00208237
0.00208204
0.00208165
0.00208117
0.00208065
0.0020801
0.00207952
0.00207891
0.00207833
0.00207789
0.00207785
0.00207927
0.00208376
0.00210431
0.00213548
0.00218887
0.00248719
0.00319148
0.00569595
0.029717
0.0277074
0.00448795
0.00337975
0.00272119
0.00236452
0.00222887
0.00217854
0.00214032
0.00212607
0.00211823
0.0021132
0.00210938
0.00210646
0.00210411
0.00210214
0.00210046
0.00209901
0.00209774
0.00209664
0.00209567
0.00209481
0.00209407
0.00209342
0.00209287
0.0020924
0.00209202
0.00209171
0.00209148
0.00209133
0.00209124
0.00204106
0.00204103
0.00204099
0.00204092
0.00204084
0.00204073
0.00204059
0.00204042
0.00204022
0.00203999
0.0020397
0.00203936
0.00203896
0.0020385
0.00203802
0.00203749
0.00203693
0.00203633
0.00203575
0.00203532
0.00203534
0.00203694
0.0020417
0.00206291
0.00210134
0.00216672
0.00289172
0.00568863
0.00643988
0.0183555
0.0288373
0.00428842
0.00326857
0.00264094
0.00231381
0.0021829
0.00213564
0.00209861
0.00208425
0.00207633
0.00207118
0.00206727
0.00206421
0.00206174
0.0020597
0.00205794
0.00205643
0.00205511
0.00205396
0.00205295
0.00205206
0.00205129
0.00205062
0.00205005
0.00204957
0.00204917
0.00204885
0.00204861
0.00204846
0.00204837
0.00200002
0.00199999
0.00199994
0.00199988
0.0019998
0.00199969
0.00199957
0.0019994
0.00199921
0.00199897
0.00199866
0.00199832
0.00199795
0.00199754
0.00199708
0.00199657
0.00199602
0.00199543
0.00199487
0.00199446
0.00199457
0.00199628
0.00200161
0.00202468
0.00206684
0.00230876
0.00834594
0.0229559
0.00882495
0.0143161
0.0270283
0.00407622
0.00317406
0.00257385
0.0022694
0.00213846
0.00209406
0.0020581
0.00204383
0.00203593
0.00203059
0.00202662
0.00202348
0.0020209
0.00201876
0.00201696
0.00201542
0.00201407
0.00201288
0.00201183
0.00201092
0.00201012
0.00200943
0.00200884
0.00200835
0.00200794
0.00200761
0.00200737
0.00200721
0.00200712
0.00196054
0.00196051
0.00196047
0.00196041
0.00196033
0.00196023
0.00196011
0.00195995
0.00195976
0.0019595
0.00195921
0.0019589
0.00195856
0.00195817
0.00195773
0.00195723
0.0019567
0.00195613
0.0019556
0.00195521
0.00195544
0.00195727
0.0019637
0.00198984
0.00208068
0.00305181
0.036145
0.0257494
0.00845263
0.0182612
0.021515
0.00389139
0.00309035
0.00252117
0.00223186
0.00209627
0.002054
0.00201876
0.00200466
0.00199689
0.00199142
0.00198734
0.00198415
0.00198153
0.00197933
0.00197746
0.00197587
0.0019745
0.00197329
0.00197222
0.00197129
0.00197047
0.00196977
0.00196917
0.00196866
0.00196825
0.00196791
0.00196767
0.0019675
0.00196741
0.00192254
0.00192251
0.00192247
0.00192242
0.00192234
0.00192225
0.00192213
0.00192197
0.00192177
0.00192153
0.00192128
0.00192098
0.00192066
0.00192029
0.00191986
0.00191939
0.00191888
0.00191834
0.00191785
0.00191748
0.00191791
0.00191988
0.00192818
0.00195848
0.00221318
0.00458215
0.0593564
0.0197281
0.0111318
0.0210566
0.0152061
0.00371521
0.0030077
0.00247742
0.00220059
0.00205705
0.00201541
0.00198057
0.0019667
0.00195909
0.00195356
0.00194943
0.00194613
0.0019435
0.00194126
0.00193935
0.00193773
0.00193633
0.00193511
0.00193404
0.00193309
0.00193226
0.00193154
0.00193093
0.00193042
0.00193
0.00192966
0.00192941
0.00192925
0.00192915
0.00188594
0.00188591
0.00188587
0.00188582
0.00188575
0.00188566
0.00188553
0.00188537
0.00188519
0.00188498
0.00188475
0.00188448
0.00188417
0.00188381
0.00188342
0.00188297
0.00188249
0.00188198
0.00188154
0.00188124
0.00188184
0.00188407
0.00189516
0.00193208
0.00246455
0.00656153
0.0634525
0.0178261
0.0146351
0.0203919
0.0103323
0.00354982
0.0029214
0.00243301
0.00217736
0.00202123
0.00197815
0.00194352
0.0019299
0.00192248
0.0019169
0.0019128
0.00190944
0.00190674
0.00190445
0.00190252
0.0019009
0.00189949
0.00189826
0.00189719
0.00189624
0.0018954
0.00189468
0.00189406
0.00189354
0.00189312
0.00189278
0.00189253