/*--------------------------------*- C++ -*----------------------------------*\
  =========                 |
  \\      /  F ield         | OpenFOAM: The Open Source CFD Toolbox
   \\    /   O peration     | Website:  https://openfoam.org
    \\  /    A nd           | Version:  12
     \\/     M anipulation  |
\*---------------------------------------------------------------------------*/
FoamFile
{
    format      ascii;
    class       volScalarField;
    location    "100";
    object      nut;
}
// * * * * * * * * * * * * * * * * * * * * * * * * * * * * * * * * * * * * * //

dimensions      [0 2 -1 0 0 0 0];

internalField   nonuniform List<scalar> 
16227
(
0.000978543
0.000978543
0.000978543
0.000978543
0.000978543
0.000978543
0.000978543
0.000978543
0.000978543
0.000978543
0.000978543
0.000978543
0.000978544
0.000978544
0.000978544
0.000978544
0.000978544
0.000978544
0.000978544
0.000978544
0.000978544
0.000978544
0.000978544
0.000978544
0.000978544
0.000978544
0.000978544
0.000978544
0.000978544
0.000978544
0.000978544
0.000978544
0.000978544
0.000978544
0.000978544
0.000978544
0.000978544
0.000978544
0.000978544
0.000978544
0.000978544
0.000978544
0.000978544
0.000978544
0.000978544
0.000978544
0.000978544
0.000978544
0.000978544
0.000978544
0.000978544
0.000978543
0.000978543
0.000978543
0.000978543
0.000978543
0.000978543
0.000978543
0.000978543
0.000978543
0.000972834
0.000972834
0.000972834
0.000972834
0.000972834
0.000972834
0.000972834
0.000972834
0.000972834
0.000972834
0.000972835
0.000972835
0.000972836
0.000972836
0.000972836
0.000972836
0.000972836
0.000972836
0.000972836
0.000972836
0.000972837
0.000972837
0.000972837
0.000972837
0.000972837
0.000972837
0.000972837
0.000972837
0.000972837
0.000972836
0.000972837
0.000972837
0.000972837
0.000972837
0.000972837
0.000972837
0.000972837
0.000972837
0.000972837
0.000972837
0.000972837
0.000972837
0.000972837
0.000972837
0.000972837
0.000972836
0.000972836
0.000972836
0.000972836
0.000972836
0.000972836
0.000972836
0.000972835
0.000972835
0.000972834
0.000972834
0.000972835
0.000972834
0.000972834
0.000972834
0.000967494
0.000967494
0.000967494
0.000967494
0.000967494
0.000967495
0.000967494
0.000967494
0.000967494
0.000967494
0.000967495
0.000967495
0.000967497
0.000967498
0.000967498
0.000967498
0.000967498
0.000967498
0.000967498
0.000967498
0.000967498
0.000967498
0.000967498
0.000967498
0.000967498
0.000967498
0.000967498
0.000967498
0.000967498
0.000967498
0.000967498
0.000967498
0.000967498
0.000967498
0.000967498
0.000967498
0.000967499
0.000967498
0.000967498
0.000967498
0.000967498
0.000967498
0.000967498
0.000967498
0.000967498
0.000967498
0.000967498
0.000967498
0.000967498
0.000967498
0.000967497
0.000967496
0.000967495
0.000967495
0.000967495
0.000967495
0.000967495
0.000967494
0.000967494
0.000967494
0.000962481
0.000962481
0.000962481
0.000962481
0.000962481
0.000962481
0.000962482
0.000962481
0.000962481
0.000962481
0.000962481
0.000962482
0.000962484
0.000962485
0.000962485
0.000962486
0.000962486
0.000962486
0.000962485
0.000962484
0.000962485
0.000962486
0.000962486
0.000962486
0.000962486
0.000962486
0.000962486
0.000962486
0.000962486
0.000962485
0.000962486
0.000962486
0.000962486
0.000962486
0.000962486
0.000962487
0.000962487
0.000962487
0.000962487
0.000962487
0.000962487
0.000962487
0.000962487
0.000962487
0.000962487
0.000962486
0.000962486
0.000962486
0.000962486
0.000962486
0.000962485
0.000962483
0.000962482
0.000962482
0.000962482
0.000962483
0.000962482
0.000962482
0.000962482
0.000962481
0.000957759
0.000957759
0.000957759
0.000957759
0.000957759
0.00095776
0.00095776
0.000957759
0.000957759
0.000957759
0.00095776
0.00095776
0.000957763
0.000957764
0.000957764
0.000957764
0.000957764
0.000957764
0.000957762
0.000957761
0.000957763
0.000957764
0.000957764
0.000957764
0.000957764
0.000957764
0.000957764
0.000957765
0.000957764
0.000957764
0.000957765
0.000957765
0.000957765
0.000957766
0.000957766
0.000957766
0.000957766
0.000957766
0.000957766
0.000957767
0.000957767
0.000957767
0.000957767
0.000957767
0.000957767
0.000957767
0.000957767
0.000957767
0.000957766
0.000957766
0.000957763
0.000957762
0.000957761
0.000957761
0.000957762
0.000957762
0.000957761
0.000957761
0.000957761
0.00095776
0.000953298
0.000953298
0.000953298
0.000953298
0.000953298
0.000953299
0.000953299
0.000953299
0.000953298
0.000953298
0.000953298
0.000953299
0.0009533
0.000953303
0.000953304
0.000953304
0.000953304
0.000953303
0.0009533
0.0009533
0.000953302
0.000953303
0.000953303
0.000953303
0.000953304
0.000953304
0.000953304
0.000953304
0.000953304
0.000953303
0.000953304
0.000953305
0.000953305
0.000953306
0.000953306
0.000953307
0.000953307
0.000953307
0.000953307
0.000953308
0.000953308
0.000953308
0.000953308
0.000953308
0.000953308
0.000953308
0.000953308
0.000953308
0.000953308
0.000953306
0.000953304
0.000953302
0.000953302
0.000953302
0.000953303
0.000953303
0.000953302
0.000953301
0.000953301
0.000953301
0.000949073
0.000949073
0.000949073
0.000949073
0.000949073
0.000949073
0.000949074
0.000949074
0.000949073
0.000949073
0.000949072
0.000949073
0.000949073
0.000949077
0.000949078
0.000949078
0.000949078
0.000949075
0.000949074
0.000949074
0.000949077
0.000949077
0.000949077
0.000949077
0.000949078
0.000949078
0.000949078
0.000949078
0.000949078
0.000949078
0.000949079
0.00094908
0.000949081
0.000949081
0.000949082
0.000949082
0.000949083
0.000949084
0.000949084
0.000949085
0.000949085
0.000949085
0.000949085
0.000949086
0.000949086
0.000949086
0.000949086
0.000949086
0.000949085
0.000949082
0.00094908
0.000949079
0.000949079
0.00094908
0.00094908
0.00094908
0.000949079
0.000949078
0.000949079
0.000949078
0.000945061
0.000945061
0.000945061
0.000945061
0.000945061
0.000945061
0.000945061
0.000945061
0.000945061
0.00094506
0.00094506
0.000945059
0.000945059
0.000945061
0.000945065
0.000945066
0.000945065
0.000945061
0.00094506
0.00094506
0.000945063
0.000945064
0.000945064
0.000945064
0.000945064
0.000945064
0.000945065
0.000945065
0.000945065
0.000945065
0.000945067
0.000945068
0.000945069
0.00094507
0.000945071
0.000945072
0.000945072
0.000945073
0.000945074
0.000945075
0.000945075
0.000945076
0.000945076
0.000945077
0.000945077
0.000945077
0.000945077
0.000945077
0.000945075
0.000945072
0.00094507
0.00094507
0.00094507
0.000945071
0.000945071
0.00094507
0.00094507
0.000945069
0.000945069
0.000945069
0.000941242
0.000941242
0.000941242
0.000941242
0.000941242
0.000941242
0.000941243
0.000941242
0.000941242
0.000941241
0.000941241
0.00094124
0.00094124
0.000941241
0.000941245
0.000941247
0.000941245
0.000941241
0.00094124
0.00094124
0.000941243
0.000941244
0.000941244
0.000941244
0.000941244
0.000941244
0.000941245
0.000941245
0.000941246
0.000941245
0.000941248
0.000941249
0.000941251
0.000941252
0.000941253
0.000941255
0.000941256
0.000941257
0.000941258
0.000941259
0.00094126
0.000941261
0.000941262
0.000941262
0.000941262
0.000941263
0.000941263
0.000941262
0.000941258
0.000941257
0.000941255
0.000941256
0.000941256
0.000941256
0.000941256
0.000941256
0.000941255
0.000941255
0.000941255
0.000941255
0.000937601
0.000937601
0.000937601
0.000937601
0.000937601
0.000937601
0.000937601
0.000937601
0.0009376
0.0009376
0.000937598
0.000937597
0.000937597
0.000937598
0.000937602
0.000937603
0.000937599
0.000937597
0.000937596
0.000937596
0.000937599
0.0009376
0.0009376
0.0009376
0.0009376
0.000937601
0.000937601
0.000937602
0.000937603
0.000937603
0.000937605
0.000937607
0.000937609
0.000937611
0.000937613
0.000937615
0.000937616
0.000937618
0.00093762
0.000937621
0.000937622
0.000937623
0.000937625
0.000937625
0.000937626
0.000937626
0.000937626
0.000937625
0.000937621
0.000937619
0.000937619
0.000937619
0.000937619
0.000937619
0.000937619
0.000937619
0.000937618
0.000937618
0.000937618
0.000937618
0.000934122
0.000934122
0.000934122
0.000934121
0.000934121
0.000934121
0.000934121
0.000934121
0.00093412
0.000934119
0.000934118
0.000934117
0.000934116
0.000934116
0.000934117
0.00093412
0.000934116
0.000934115
0.000934114
0.000934114
0.000934116
0.000934117
0.000934118
0.000934117
0.000934118
0.000934118
0.000934119
0.00093412
0.000934121
0.000934121
0.000934125
0.000934127
0.00093413
0.000934132
0.000934134
0.000934137
0.000934139
0.000934142
0.000934144
0.000934146
0.000934148
0.000934149
0.00093415
0.000934151
0.000934152
0.000934153
0.000934152
0.00093415
0.000934147
0.000934146
0.000934145
0.000934145
0.000934145
0.000934146
0.000934146
0.000934145
0.000934145
0.000934144
0.000934144
0.000934144
0.000930792
0.000930792
0.000930792
0.000930791
0.000930791
0.000930791
0.00093079
0.00093079
0.000930789
0.000930788
0.000930787
0.000930785
0.000930783
0.000930783
0.000930784
0.000930786
0.000930783
0.000930781
0.00093078
0.00093078
0.00093078
0.000930783
0.000930783
0.000930783
0.000930784
0.000930784
0.000930785
0.000930787
0.000930788
0.000930789
0.000930793
0.000930796
0.000930799
0.000930802
0.000930805
0.000930809
0.000930812
0.000930815
0.000930818
0.00093082
0.000930822
0.000930824
0.000930826
0.000930828
0.000930828
0.000930828
0.000930826
0.000930825
0.000930823
0.000930822
0.000930822
0.000930822
0.000930822
0.000930822
0.000930822
0.000930822
0.000930821
0.000930821
0.000930821
0.00093082
0.000927599
0.000927599
0.000927599
0.000927599
0.000927598
0.000927598
0.000927597
0.000927597
0.000927595
0.000927594
0.000927593
0.000927591
0.000927589
0.000927587
0.000927586
0.000927586
0.000927586
0.000927585
0.000927583
0.000927582
0.000927582
0.000927585
0.000927586
0.000927586
0.000927586
0.000927587
0.000927588
0.00092759
0.000927592
0.000927593
0.000927598
0.000927602
0.000927606
0.00092761
0.000927614
0.000927618
0.000927622
0.000927626
0.00092763
0.000927633
0.000927636
0.000927638
0.00092764
0.000927642
0.000927643
0.000927643
0.00092764
0.00092764
0.000927638
0.000927637
0.000927637
0.000927637
0.000927637
0.000927637
0.000927637
0.000927637
0.000927636
0.000927635
0.000927635
0.000927635
0.000924534
0.000924534
0.000924534
0.000924533
0.000924532
0.000924532
0.000924531
0.00092453
0.000924529
0.000924527
0.000924526
0.000924523
0.000924521
0.000924519
0.000924517
0.000924516
0.000924516
0.000924515
0.000924513
0.000924512
0.000924511
0.000924515
0.000924515
0.000924515
0.000924516
0.000924517
0.000924518
0.00092452
0.000924523
0.000924525
0.00092453
0.000924535
0.00092454
0.000924545
0.00092455
0.000924556
0.000924561
0.000924565
0.00092457
0.000924574
0.000924577
0.00092458
0.000924583
0.000924585
0.000924585
0.000924584
0.000924583
0.000924583
0.000924581
0.00092458
0.00092458
0.00092458
0.00092458
0.00092458
0.00092458
0.000924579
0.000924579
0.000924578
0.000924578
0.000924578
0.000921587
0.000921586
0.000921586
0.000921585
0.000921585
0.000921584
0.000921583
0.000921582
0.00092158
0.000921578
0.000921576
0.000921574
0.000921571
0.000921569
0.000921566
0.000921565
0.000921565
0.000921563
0.000921561
0.000921559
0.000921558
0.000921561
0.000921562
0.000921561
0.000921562
0.000921563
0.000921565
0.000921568
0.000921571
0.000921574
0.00092158
0.000921586
0.000921593
0.000921599
0.000921605
0.000921612
0.000921618
0.000921624
0.000921629
0.000921634
0.000921638
0.000921642
0.000921645
0.000921646
0.000921645
0.000921645
0.000921645
0.000921645
0.000921644
0.000921643
0.000921642
0.000921642
0.000921642
0.000921642
0.000921642
0.000921641
0.00092164
0.00092164
0.00092164
0.00092164
0.000918749
0.000918749
0.000918748
0.000918748
0.000918747
0.000918746
0.000918745
0.000918743
0.000918741
0.000918739
0.000918737
0.000918734
0.000918731
0.000918728
0.000918725
0.000918723
0.000918722
0.00091872
0.000918717
0.000918715
0.000918714
0.000918716
0.000918717
0.000918717
0.000918717
0.000918719
0.000918722
0.000918725
0.000918729
0.000918733
0.00091874
0.000918748
0.000918755
0.000918763
0.000918771
0.000918778
0.000918786
0.000918793
0.000918799
0.000918805
0.00091881
0.000918814
0.000918817
0.000918818
0.000918818
0.000918818
0.000918818
0.000918817
0.000918816
0.000918816
0.000918816
0.000918815
0.000918815
0.000918815
0.000918814
0.000918814
0.000918813
0.000918812
0.000918812
0.000918812
0.000916014
0.000916014
0.000916013
0.000916012
0.000916011
0.00091601
0.000916009
0.000916007
0.000916005
0.000916002
0.000915999
0.000915996
0.000915992
0.000915989
0.000915985
0.000915983
0.000915982
0.000915979
0.000915976
0.000915973
0.000915971
0.00091597
0.000915973
0.000915974
0.000915975
0.000915977
0.00091598
0.000915984
0.000915989
0.000915994
0.000916003
0.000916012
0.000916021
0.00091603
0.00091604
0.000916049
0.000916058
0.000916066
0.000916073
0.00091608
0.000916086
0.00091609
0.000916093
0.000916093
0.000916094
0.000916095
0.000916095
0.000916094
0.000916093
0.000916093
0.000916092
0.000916092
0.000916091
0.000916091
0.00091609
0.000916089
0.000916088
0.000916088
0.000916087
0.000916087
0.000913374
0.000913374
0.000913373
0.000913372
0.000913371
0.00091337
0.000913368
0.000913366
0.000913363
0.000913361
0.000913357
0.000913353
0.000913349
0.000913345
0.000913341
0.000913338
0.000913337
0.000913333
0.000913329
0.000913326
0.000913323
0.000913321
0.000913325
0.000913326
0.000913327
0.00091333
0.000913334
0.000913339
0.000913345
0.000913352
0.000913362
0.000913373
0.000913384
0.000913395
0.000913406
0.000913417
0.000913427
0.000913437
0.000913445
0.000913453
0.000913459
0.000913464
0.000913464
0.000913466
0.000913468
0.000913469
0.000913469
0.000913468
0.000913467
0.000913466
0.000913466
0.000913465
0.000913464
0.000913463
0.000913463
0.000913462
0.00091346
0.00091346
0.000913459
0.000913459
0.000910824
0.000910824
0.000910823
0.000910822
0.000910821
0.000910819
0.000910817
0.000910815
0.000910812
0.000910808
0.000910805
0.0009108
0.000910796
0.000910791
0.000910786
0.000910783
0.00091078
0.000910776
0.000910772
0.000910768
0.000910765
0.000910763
0.000910765
0.000910768
0.00091077
0.000910773
0.000910778
0.000910785
0.000910792
0.000910801
0.000910813
0.000910826
0.000910839
0.000910852
0.000910865
0.000910878
0.000910889
0.0009109
0.000910909
0.000910918
0.000910924
0.000910929
0.00091093
0.000910932
0.000910934
0.000910935
0.000910934
0.000910932
0.000910932
0.000910931
0.00091093
0.000910929
0.000910928
0.000910927
0.000910925
0.000910924
0.000910923
0.000910922
0.000910921
0.000910921
0.000908358
0.000908358
0.000908357
0.000908356
0.000908354
0.000908352
0.00090835
0.000908347
0.000908344
0.00090834
0.000908336
0.000908331
0.000908326
0.000908321
0.000908316
0.000908311
0.000908308
0.000908303
0.000908298
0.000908294
0.00090829
0.000908288
0.000908288
0.000908293
0.000908297
0.000908301
0.000908308
0.000908316
0.000908327
0.000908337
0.000908353
0.000908368
0.000908383
0.000908398
0.000908413
0.000908427
0.00090844
0.000908451
0.000908461
0.000908469
0.000908475
0.000908479
0.000908482
0.000908484
0.000908486
0.000908486
0.000908485
0.000908483
0.000908482
0.000908481
0.000908479
0.000908478
0.000908476
0.000908474
0.000908473
0.000908471
0.00090847
0.000908469
0.000908468
0.000908468
0.000905971
0.000905971
0.00090597
0.000905968
0.000905967
0.000905965
0.000905962
0.000905959
0.000905956
0.000905951
0.000905946
0.000905941
0.000905935
0.000905929
0.000905923
0.000905917
0.000905913
0.000905909
0.000905904
0.000905899
0.000905895
0.000905892
0.000905893
0.000905899
0.000905904
0.000905911
0.00090592
0.000905932
0.000905945
0.000905959
0.000905977
0.000905996
0.000906013
0.00090603
0.000906046
0.000906061
0.000906075
0.000906087
0.000906096
0.000906104
0.000906109
0.000906113
0.000906116
0.000906118
0.000906119
0.000906118
0.000906116
0.000906115
0.000906113
0.000906111
0.000906109
0.000906107
0.000906104
0.000906102
0.0009061
0.000906098
0.000906096
0.000906095
0.000906094
0.000906094
0.000903659
0.000903658
0.000903657
0.000903656
0.000903654
0.000903651
0.000903649
0.000903645
0.000903641
0.000903637
0.000903631
0.000903626
0.000903619
0.000903613
0.000903606
0.000903599
0.000903594
0.000903589
0.000903584
0.000903579
0.000903575
0.000903573
0.000903574
0.000903582
0.00090359
0.0009036
0.000903614
0.00090363
0.000903648
0.000903667
0.000903689
0.000903711
0.000903731
0.000903749
0.000903766
0.00090378
0.000903793
0.000903804
0.000903813
0.00090382
0.000903823
0.000903827
0.000903829
0.000903831
0.00090383
0.000903827
0.000903825
0.000903822
0.00090382
0.000903817
0.000903814
0.000903811
0.000903808
0.000903805
0.000903803
0.0009038
0.000903798
0.000903796
0.000903795
0.000903795
0.000901416
0.000901416
0.000901415
0.000901413
0.000901411
0.000901409
0.000901406
0.000901402
0.000901397
0.000901392
0.000901387
0.00090138
0.000901373
0.000901366
0.000901359
0.000901351
0.000901345
0.00090134
0.000901335
0.00090133
0.000901326
0.000901325
0.000901329
0.000901338
0.000901358
0.000901374
0.000901394
0.000901418
0.000901444
0.00090147
0.000901498
0.000901523
0.000901545
0.000901563
0.000901579
0.000901592
0.000901594
0.000901602
0.000901607
0.000901612
0.000901615
0.000901617
0.000901617
0.000901616
0.000901613
0.00090161
0.000901606
0.000901602
0.000901599
0.000901594
0.00090159
0.000901586
0.000901582
0.000901579
0.000901576
0.000901573
0.00090157
0.000901568
0.000901567
0.000901566
0.000899241
0.00089924
0.000899239
0.000899237
0.000899235
0.000899232
0.000899229
0.000899225
0.00089922
0.000899215
0.000899208
0.000899201
0.000899194
0.000899186
0.000899178
0.00089917
0.000899163
0.000899157
0.000899152
0.000899148
0.000899146
0.000899147
0.000899154
0.000899181
0.000900232
0.000900259
0.000900284
0.000900314
0.000900347
0.000900379
0.000900412
0.00090044
0.000900462
0.000900479
0.000900492
0.000900502
0.000899503
0.000899482
0.000899482
0.000899482
0.000899481
0.00089948
0.000899477
0.000899472
0.000899467
0.000899462
0.000899456
0.000899451
0.000899445
0.00089944
0.000899434
0.000899429
0.000899424
0.000899419
0.000899415
0.000899412
0.000899409
0.000899406
0.000899405
0.000899404
0.000897128
0.000897127
0.000897126
0.000897124
0.000897122
0.000897118
0.000897115
0.000897111
0.000897106
0.0008971
0.000897093
0.000897086
0.000897078
0.00089707
0.000897061
0.000897052
0.000897044
0.000897037
0.000897033
0.000897031
0.000897032
0.000897037
0.000897058
0.000898093
0.000898061
0.000898105
0.000898147
0.000898196
0.000898249
0.000898299
0.000898344
0.000898377
0.000898397
0.000898407
0.000898409
0.000898404
0.000898457
0.000897464
0.000897439
0.00089743
0.000897422
0.000897414
0.000897406
0.000897397
0.000897388
0.00089738
0.000897372
0.000897364
0.000897356
0.000897349
0.000897342
0.000897335
0.000897329
0.000897323
0.000897318
0.000897314
0.00089731
0.000897308
0.000897306
0.000897305
0.000895075
0.000895074
0.000895072
0.00089507
0.000895068
0.000895065
0.000895061
0.000895056
0.000895051
0.000895045
0.000895038
0.00089503
0.000895022
0.000895013
0.000895004
0.000894995
0.000894987
0.00089498
0.000894976
0.000894977
0.000894981
0.000894994
0.000895034
0.000895988
0.000895979
0.000896543
0.000896611
0.000896688
0.000896769
0.000896842
0.000896901
0.000896937
0.000896949
0.000896944
0.000896929
0.000896435
0.00089645
0.000895536
0.000895481
0.000895456
0.000895436
0.000895418
0.000895402
0.000895387
0.000895374
0.000895362
0.00089535
0.000895339
0.000895329
0.000895319
0.00089531
0.000895301
0.000895294
0.000895287
0.000895281
0.000895276
0.000895271
0.000895268
0.000895266
0.000895265
0.000893078
0.000893077
0.000893076
0.000893073
0.000893071
0.000893067
0.000893063
0.000893059
0.000893053
0.000893046
0.000893039
0.000893031
0.000893022
0.000893013
0.000893004
0.000892995
0.000892987
0.000892981
0.000892978
0.000892981
0.000892992
0.000893018
0.000893087
0.000893968
0.000893996
0.000894553
0.000894679
0.000894824
0.000894979
0.000895112
0.000895198
0.000895227
0.000895204
0.00089515
0.000895084
0.000894613
0.000894565
0.00089371
0.000893612
0.000893561
0.000893522
0.00089349
0.000893463
0.00089344
0.000893421
0.000893404
0.000893388
0.000893373
0.000893359
0.000893347
0.000893335
0.000893325
0.000893315
0.000893307
0.0008933
0.000893294
0.000893289
0.000893285
0.000893282
0.000893281
0.000891135
0.000891134
0.000891133
0.000891131
0.000891128
0.000891124
0.00089112
0.000891115
0.000891109
0.000891102
0.000891095
0.000891086
0.000891077
0.000891068
0.000891059
0.000891051
0.000891043
0.000891038
0.000891037
0.000891044
0.000891064
0.000891108
0.00089122
0.000892045
0.000892131
0.000892719
0.000892955
0.000893266
0.000893606
0.000893894
0.000894048
0.000894037
0.000893898
0.0008937
0.000893503
0.000892977
0.000892836
0.000891998
0.000891839
0.000891748
0.00089168
0.000891629
0.000891589
0.000891556
0.000891528
0.000891503
0.000891482
0.000891462
0.000891445
0.000891429
0.000891415
0.000891402
0.000891391
0.000891381
0.000891373
0.000891365
0.000891359
0.000891355
0.000891352
0.00089135
0.000889244
0.000889242
0.000889241
0.000889239
0.000889236
0.000889232
0.000889228
0.000889223
0.000889216
0.000889209
0.000889202
0.000889193
0.000889184
0.000889175
0.000889166
0.000889158
0.000889151
0.000889148
0.000889151
0.000889164
0.000889194
0.000889263
0.000889434
0.000890227
0.000890416
0.00089112
0.000891581
0.000892317
0.000893202
0.000893978
0.000894318
0.00089411
0.000893553
0.000892913
0.000892359
0.00089162
0.000891307
0.000890419
0.000890171
0.00089002
0.000889914
0.000889837
0.000889777
0.00088973
0.000889691
0.000889658
0.00088963
0.000889605
0.000889583
0.000889563
0.000889546
0.000889531
0.000889517
0.000889506
0.000889496
0.000889488
0.000889481
0.000889476
0.000889472
0.00088947
0.000887401
0.0008874
0.000887398
0.000887396
0.000887393
0.000887389
0.000887385
0.000887379
0.000887373
0.000887366
0.000887358
0.000887349
0.00088734
0.000887331
0.000887323
0.000887315
0.00088731
0.000887309
0.000887316
0.000887337
0.000887383
0.000887482
0.000887728
0.000888525
0.000888901
0.000889878
0.000890873
0.000892775
0.000895511
0.000898177
0.000899105
0.000897834
0.000895573
0.000893488
0.000891965
0.000890675
0.000890039
0.000888994
0.000888619
0.000888383
0.000888223
0.000888111
0.000888026
0.000887961
0.000887909
0.000887865
0.000887829
0.000887798
0.000887771
0.000887747
0.000887726
0.000887708
0.000887692
0.000887679
0.000887667
0.000887658
0.00088765
0.000887644
0.00088764
0.000887638
0.000885605
0.000885604
0.000885602
0.0008856
0.000885597
0.000885593
0.000885588
0.000885583
0.000885576
0.000885569
0.000885561
0.000885552
0.000885543
0.000885535
0.000885526
0.000885519
0.000885515
0.000885517
0.000885529
0.00088556
0.000885626
0.000885762
0.000886097
0.000886942
0.000887647
0.000889176
0.00089146
0.000896941
0.000907465
0.000920208
0.000923365
0.000914792
0.000904207
0.000897058
0.000892954
0.000890364
0.000889104
0.000887744
0.000887188
0.000886836
0.000886606
0.000886449
0.000886334
0.000886246
0.000886178
0.000886123
0.000886077
0.000886039
0.000886006
0.000885977
0.000885953
0.000885932
0.000885913
0.000885898
0.000885885
0.000885874
0.000885865
0.000885858
0.000885854
0.000885852
0.000883853
0.000883852
0.000883851
0.000883848
0.000883845
0.000883841
0.000883836
0.000883831
0.000883824
0.000883817
0.000883809
0.000883801
0.000883792
0.000883783
0.000883775
0.000883769
0.000883766
0.000883771
0.000883788
0.000883829
0.000883916
0.000884095
0.00088453
0.000885477
0.000886697
0.000889128
0.0008946
0.000912188
0.000450007
0.00027343
0.000277826
0.000438979
0.000932323
0.000907029
0.000896206
0.000890937
0.000888562
0.000886675
0.000885877
0.000885376
0.00088506
0.000884848
0.000884696
0.000884584
0.000884497
0.000884428
0.000884372
0.000884325
0.000884286
0.000884253
0.000884224
0.000884199
0.000884178
0.00088416
0.000884145
0.000884133
0.000884123
0.000884116
0.000884111
0.000884108
0.000882144
0.000882143
0.000882141
0.000882139
0.000882136
0.000882132
0.000882127
0.000882122
0.000882115
0.000882108
0.0008821
0.000882091
0.000882082
0.000882074
0.000882066
0.000882061
0.00088206
0.000882066
0.000882088
0.000882138
0.000882248
0.000882468
0.000883008
0.000884116
0.000886029
0.000889829
0.00090226
0.000582115
0.000206406
9.45024e-05
0.000104674
0.000175513
0.000463937
0.000928736
0.000902453
0.00089251
0.0008884
0.000885767
0.000884668
0.000883991
0.000883578
0.000883304
0.00088311
0.000882969
0.000882862
0.000882778
0.000882711
0.000882655
0.000882609
0.00088257
0.000882537
0.000882508
0.000882485
0.000882464
0.000882448
0.000882434
0.000882423
0.000882415
0.000882409
0.000882406
0.000880476
0.000880475
0.000880473
0.000880471
0.000880468
0.000880464
0.000880459
0.000880453
0.000880447
0.00088044
0.000880432
0.000880423
0.000880414
0.000880406
0.000880399
0.000880393
0.000880393
0.000880401
0.000880427
0.000880484
0.000880613
0.000880872
0.00088151
0.000882823
0.000885483
0.000891076
0.000913973
0.000583157
0.00028759
0.00010394
0.000372873
0.000958774
0.000911137
0.000894778
0.000888465
0.000884963
0.000883532
0.000882666
0.00088215
0.000881808
0.00088157
0.000881399
0.00088127
0.000881169
0.00088109
0.000881025
0.000880971
0.000880927
0.000880889
0.000880857
0.00088083
0.000880807
0.000880789
0.000880774
0.000880762
0.000880753
0.000880747
0.000880744
0.000878847
0.000878845
0.000878844
0.000878841
0.000878838
0.000878834
0.00087883
0.000878824
0.000878818
0.00087881
0.000878802
0.000878794
0.000878785
0.000878777
0.00087877
0.000878765
0.000878764
0.000878773
0.000878801
0.000878863
0.000879006
0.000879299
0.000880018
0.000881547
0.000884912
0.000892329
0.000924537
0.000812984
0.000316461
0.00043187
0.000198719
0.000580467
0.000983371
0.000919722
0.000897003
0.000888569
0.00088419
0.000882432
0.000881382
0.000880766
0.000880356
0.000880074
0.00087987
0.000879718
0.000879601
0.000879509
0.000879434
0.000879373
0.000879322
0.00087928
0.000879244
0.000879214
0.000879189
0.000879168
0.000879151
0.000879138
0.000879128
0.000879122
0.000879119
0.000877255
0.000877254
0.000877252
0.00087725
0.000877246
0.000877242
0.000877238
0.000877232
0.000877226
0.000877219
0.000877211
0.000877203
0.000877194
0.000877186
0.000877178
0.000877173
0.000877172
0.00087718
0.000877208
0.000877272
0.000877425
0.000877747
0.000878532
0.000880301
0.000884204
0.000893214
0.000931491
0.000933788
0.000261854
0.00936113
0.0373974
0.000274722
0.00088081
0.00099967
0.000925733
0.000898555
0.000888453
0.000883378
0.000881331
0.000880121
0.000879415
0.00087894
0.000878614
0.000878379
0.000878205
0.000878071
0.000877965
0.000877881
0.000877812
0.000877755
0.000877707
0.000877667
0.000877634
0.000877606
0.000877584
0.000877565
0.000877551
0.00087754
0.000877533
0.000877529
0.000875699
0.000875697
0.000875696
0.000875694
0.00087569
0.000875687
0.000875682
0.000875677
0.00087567
0.000875663
0.000875655
0.000875647
0.000875638
0.00087563
0.000875622
0.000875616
0.000875615
0.000875621
0.000875648
0.000875712
0.000875871
0.000876221
0.000877071
0.000879031
0.000883444
0.000893725
0.000935395
0.000939095
0.000282544
0.0683787
0.0576499
0.000342301
0.000917708
0.00100789
0.000928898
0.000899165
0.000888054
0.000882491
0.000880206
0.000878869
0.000878087
0.000877553
0.000877188
0.000876923
0.000876726
0.000876575
0.000876457
0.000876362
0.000876285
0.000876222
0.000876169
0.000876125
0.000876089
0.000876059
0.000876034
0.000876014
0.000875998
0.000875987
0.000875979
0.000875975
0.000874177
0.000874176
0.000874174
0.000874172
0.000874169
0.000874165
0.000874161
0.000874155
0.000874149
0.000874142
0.000874135
0.000874126
0.000874118
0.000874109
0.000874101
0.000874094
0.00087409
0.000874094
0.000874119
0.000874184
0.000874349
0.000874738
0.000875665
0.000877819
0.000882794
0.000894353
0.000939565
0.000952977
0.000305604
0.1
0.0267531
0.000443999
0.00094996
0.00100955
0.000929438
0.000898845
0.000887354
0.000881517
0.000879054
0.000877621
0.000876776
0.000876192
0.00087579
0.000875496
0.000875279
0.000875112
0.000874981
0.000874876
0.000874791
0.000874722
0.000874664
0.000874616
0.000874577
0.000874544
0.000874517
0.000874495
0.000874478
0.000874466
0.000874458
0.000874453
0.000872689
0.000872687
0.000872686
0.000872683
0.00087268
0.000872677
0.000872672
0.000872667
0.000872661
0.000872655
0.000872647
0.000872639
0.00087263
0.000872621
0.000872612
0.000872603
0.000872598
0.000872601
0.000872626
0.000872694
0.000872868
0.000873312
0.000874339
0.000876727
0.000882599
0.000895281
0.000945294
0.000995975
0.000379282
0.0153512
0.00755271
0.000524192
0.000968873
0.00100586
0.000928458
0.000897852
0.000886389
0.000880464
0.000877875
0.000876375
0.000875479
0.000874851
0.000874417
0.000874098
0.000873861
0.000873679
0.000873536
0.000873421
0.000873329
0.000873253
0.000873191
0.000873139
0.000873096
0.00087306
0.000873031
0.000873008
0.00087299
0.000872977
0.000872968
0.000872963
0.000871232
0.00087123
0.000871229
0.000871227
0.000871224
0.00087122
0.000871216
0.000871211
0.000871205
0.000871199
0.000871192
0.000871184
0.000871175
0.000871164
0.000871154
0.000871146
0.000871142
0.000871146
0.000871172
0.000871245
0.000871434
0.000871953
0.000873106
0.000875803
0.000883497
0.00089556
0.000964623
0.00104909
0.000536909
0.0084141
0.0281703
0.000556443
0.000975748
0.000999853
0.000926425
0.000896418
0.000885274
0.000879354
0.000876677
0.000875132
0.000874193
0.000873529
0.000873067
0.000872726
0.000872471
0.000872274
0.00087212
0.000871996
0.000871896
0.000871815
0.000871747
0.000871692
0.000871646
0.000871608
0.000871577
0.000871552
0.000871532
0.000871518
0.000871509
0.000871504
0.000869805
0.000869804
0.000869802
0.0008698
0.000869798
0.000869794
0.00086979
0.000869786
0.00086978
0.000869774
0.000869767
0.000869759
0.000869749
0.00086974
0.000869731
0.000869724
0.000869721
0.000869726
0.000869757
0.000869838
0.000870055
0.000870651
0.000871963
0.000875108
0.000884818
0.000900064
0.00107254
0.00159858
0.000859079
0.00260875
0.0217811
0.000562215
0.000983002
0.000994611
0.000924746
0.000894782
0.000884086
0.000878217
0.000875474
0.000873897
0.00087292
0.000872227
0.000871739
0.000871377
0.000871106
0.000870896
0.000870731
0.000870599
0.000870492
0.000870405
0.000870333
0.000870273
0.000870224
0.000870184
0.000870151
0.000870125
0.000870104
0.000870089
0.000870079
0.000870074
0.000868408
0.000868407
0.000868405
0.000868403
0.000868401
0.000868398
0.000868394
0.00086839
0.000868385