/*--------------------------------*- C++ -*----------------------------------*\
  =========                 |
  \\      /  F ield         | OpenFOAM: The Open Source CFD Toolbox
   \\    /   O peration     | Website:  https://openfoam.org
    \\  /    A nd           | Version:  12
     \\/     M anipulation  |
\*---------------------------------------------------------------------------*/
FoamFile
{
    format      ascii;
    class       volScalarField;
    location    "100";
    object      omega;
}
// * * * * * * * * * * * * * * * * * * * * * * * * * * * * * * * * * * * * * //

dimensions      [0 0 -1 0 0 0 0];

internalField   nonuniform List<scalar> 
16227
(
9.34702
9.34704
9.34704
9.34707
9.34706
9.3471
9.34709
9.34708
9.34707
9.34709
9.34713
9.34715
9.3472
9.3472
9.3472
9.3472
9.3472
9.3472
9.3472
9.3472
9.3472
9.3472
9.3472
9.3472
9.3472
9.3472
9.3472
9.34722
9.34722
9.3472
9.34721
9.3472
9.3472
9.3472
9.34721
9.3472
9.3472
9.3472
9.3472
9.3472
9.3472
9.3472
9.3472
9.3472
9.3472
9.3472
9.3472
9.34719
9.34717
9.34717
9.34717
9.34716
9.3471
9.3471
9.34706
9.34705
9.34707
9.34705
9.34703
9.34702
8.71805
8.71807
8.71807
8.7181
8.71811
8.71814
8.71813
8.7181
8.71811
8.71812
8.71818
8.71819
8.71833
8.71839
8.7184
8.7184
8.7184
8.7184
8.7184
8.7184
8.71841
8.71843
8.71843
8.71843
8.71843
8.71843
8.71843
8.71842
8.71841
8.71836
8.71841
8.71843
8.71843
8.71843
8.71843
8.71842
8.7184
8.7184
8.7184
8.7184
8.71841
8.71841
8.71841
8.71839
8.71839
8.71838
8.71838
8.71838
8.71838
8.71837
8.71834
8.71829
8.71818
8.71816
8.71813
8.71811
8.71814
8.71807
8.71808
8.71806
8.16618
8.1662
8.16621
8.16622
8.16621
8.1663
8.16626
8.16624
8.16625
8.16626
8.16631
8.16632
8.16657
8.16663
8.16664
8.16665
8.16664
8.16664
8.16666
8.16661
8.16665
8.16666
8.16666
8.16666
8.16666
8.16666
8.16665
8.16666
8.16665
8.16659
8.16664
8.16666
8.16666
8.16667
8.16667
8.16667
8.16668
8.16667
8.16666
8.16666
8.16666
8.16667
8.16666
8.16665
8.16665
8.16665
8.16664
8.16664
8.16663
8.16661
8.16657
8.16638
8.16631
8.16629
8.16628
8.16627
8.1663
8.16621
8.16622
8.1662
7.67827
7.67829
7.67829
7.67831
7.67831
7.67838
7.67838
7.67835
7.67835
7.67835
7.67839
7.67845
7.67871
7.67878
7.67879
7.67881
7.67882
7.67883
7.67877
7.67865
7.67876
7.6788
7.6788
7.67881
7.67881
7.67881
7.67881
7.67881
7.6788
7.67872
7.67879
7.67882
7.67882
7.67882
7.67883
7.67884
7.67885
7.67885
7.67885
7.67885
7.67886
7.67886
7.67885
7.67886
7.67885
7.67885
7.67885
7.67884
7.67885
7.67882
7.6787
7.67851
7.67842
7.67844
7.67843
7.67845
7.67842
7.67835
7.67835
7.67833
7.24399
7.244
7.24401
7.24403
7.24403
7.24408
7.24411
7.24405
7.24406
7.24407
7.2441
7.24416
7.2444
7.24453
7.24455
7.24455
7.24456
7.24453
7.24433
7.24426
7.24446
7.24453
7.24453
7.24452
7.24452
7.24452
7.24452
7.24453
7.24451
7.24442
7.24452
7.24455
7.24457
7.24458
7.24458
7.2446
7.24462
7.24464
7.24464
7.24465
7.24467
7.24468
7.24468
7.24468
7.24468
7.24469
7.24469
7.24469
7.24468
7.2446
7.24436
7.24425
7.24418
7.24421
7.24422
7.24427
7.24421
7.24413
7.24413
7.24412
6.85507
6.8551
6.85509
6.85511
6.85511
6.85515
6.85519
6.85514
6.85512
6.85512
6.85513
6.85516
6.85528
6.85556
6.85562
6.85564
6.85564
6.85554
6.85532
6.85528
6.8555
6.85557
6.85556
6.85555
6.85556
6.85556
6.85557
6.85557
6.85555
6.85547
6.85557
6.85561
6.85564
6.85567
6.85569
6.85572
6.85575
6.85577
6.85579
6.85581
6.85583
6.85585
6.85586
6.85588
6.85588
6.85589
6.8559
6.8559
6.85589
6.85575
6.85552
6.8554
6.85536
6.85541
6.85545
6.85544
6.85538
6.85532
6.85532
6.8553
6.50488
6.5049
6.50489
6.5049
6.5049
6.50494
6.50498
6.50496
6.50492
6.50491
6.50489
6.50489
6.50499
6.50525
6.50538
6.50541
6.50538
6.5051
6.50499
6.505
6.50522
6.50528
6.50527
6.50526
6.50526
6.50526
6.50526
6.50528
6.50527
6.50518
6.50531
6.50536
6.5054
6.50544
6.50548
6.50552
6.50556
6.50561
6.50565
6.50569
6.50572
6.50575
6.50578
6.5058
6.50582
6.50583
6.50584
6.50585
6.50578
6.50551
6.50538
6.5053
6.5053
6.50536
6.50537
6.50536
6.50531
6.50525
6.50526
6.50524
6.18797
6.18797
6.18797
6.18799
6.18797
6.18801
6.18804
6.18803
6.18799
6.18795
6.18793
6.18789
6.18793
6.18806
6.18835
6.18843
6.18837
6.18805
6.18795
6.18795
6.18819
6.18824
6.18823
6.18821
6.1882
6.18821
6.18822
6.18823
6.18822
6.18815
6.18829
6.18836
6.18842
6.18848
6.18854
6.18861
6.18867
6.18873
6.18879
6.18885
6.18891
6.18894
6.18899
6.18902
6.18906
6.18907
6.18909
6.18909
6.18896
6.18871
6.18858
6.18854
6.18858
6.18862
6.18861
6.1886
6.18856
6.18851
6.18852
6.1885
5.89988
5.89988
5.89988
5.89988
5.89988
5.89989
5.89992
5.8999
5.89988
5.89983
5.89978
5.89972
5.89973
5.89982
5.90016
5.90025
5.9001
5.8998
5.89971
5.89971
5.89994
5.89998
5.89995
5.89993
5.89993
5.89993
5.89993
5.89996
5.89996
5.8999
5.90005
5.90014
5.90023
5.90031
5.9004
5.90049
5.90058
5.90067
5.90075
5.90083
5.9009
5.90098
5.90103
5.90107
5.90111
5.90116
5.90117
5.90111
5.90084
5.90072
5.90064
5.90067
5.90068
5.90071
5.9007
5.9007
5.90066
5.90061
5.90061
5.90061
5.6369
5.6369
5.63689
5.63689
5.63687
5.63689
5.63691
5.63688
5.63685
5.63682
5.63675
5.63666
5.63666
5.63675
5.63701
5.6371
5.6368
5.63661
5.63655
5.63655
5.63675
5.63679
5.63676
5.63673
5.63672
5.63672
5.63673
5.63675
5.63677
5.63672
5.6369
5.63701
5.63712
5.63723
5.63735
5.63747
5.63759
5.63771
5.63783
5.63792
5.63802
5.63811
5.6382
5.63826
5.63832
5.63837
5.63839
5.63829
5.63802
5.63791
5.63789
5.6379
5.63791
5.63794
5.63794
5.63794
5.6379
5.63786
5.63785
5.63785
5.39592
5.39592
5.39591
5.3959
5.39589
5.39589
5.3959
5.39586
5.39582
5.39578
5.39572
5.3956
5.39554
5.39557
5.39567
5.39588
5.39559
5.39544
5.39537
5.39535
5.39549
5.39556
5.39553
5.39549
5.39547
5.39547
5.39548
5.39551
5.39555
5.39551
5.3957
5.39585
5.39599
5.39613
5.39629
5.39644
5.3966
5.39675
5.3969
5.39704
5.39716
5.39727
5.39738
5.39746
5.39754
5.39759
5.39754
5.3974
5.39724
5.39715
5.39715
5.39716
5.39717
5.39721
5.39721
5.3972
5.39717
5.39713
5.39713
5.39712
5.17432
5.17432
5.17431
5.1743
5.17428
5.17428
5.17426
5.17423
5.17418
5.17411
5.17404
5.17394
5.17384
5.17381
5.17386
5.17401
5.1738
5.17364
5.17354
5.17349
5.17348
5.17363
5.17363
5.17359
5.17356
5.17355
5.17357
5.17362
5.17366
5.17365
5.17387
5.17405
5.17422
5.1744
5.1746
5.17479
5.17499
5.17518
5.17536
5.17553
5.1757
5.17583
5.17596
5.17608
5.17616
5.17618
5.17605
5.17598
5.17589
5.17582
5.17582
5.17584
5.17586
5.17589
5.17589
5.17589
5.17585
5.17581
5.17581
5.17581
4.9699
4.9699
4.96988
4.96987
4.96984
4.96983
4.9698
4.96976
4.96969
4.96962
4.96954
4.96942
4.96931
4.96919
4.96914
4.96913
4.96909
4.96899
4.96886
4.96877
4.9687
4.96888
4.96887
4.96882
4.96878
4.96877
4.96879
4.96884
4.9689
4.96891
4.96917
4.96938
4.96959
4.96982
4.97006
4.9703
4.97054
4.97078
4.97101
4.97122
4.97141
4.97159
4.97174
4.97188
4.97196
4.97196
4.97185
4.97183
4.97174
4.97168
4.97169
4.97171
4.97173
4.97175
4.97176
4.97175
4.97172
4.97169
4.97169
4.97168
4.78074
4.78074
4.78072
4.7807
4.78067
4.78064
4.78061
4.78055
4.78047
4.78039
4.78029
4.78015
4.78003
4.7799
4.77976
4.77971
4.77969
4.77958
4.77943
4.77932
4.77922
4.77937
4.77935
4.77927
4.77922
4.77921
4.77923
4.77929
4.77937
4.77941
4.77969
4.77995
4.78021
4.78048
4.78077
4.78107
4.78137
4.78165
4.78193
4.78219
4.78242
4.78263
4.7828
4.78295
4.78298
4.78295
4.78295
4.78294
4.78288
4.78285
4.78285
4.78287
4.78289
4.78291
4.78292
4.78291
4.78288
4.78285
4.78285
4.78284
4.60522
4.60522
4.6052
4.60517
4.60513
4.6051
4.60506
4.60498
4.6049
4.60479
4.60468
4.60453
4.60438
4.60422
4.60408
4.60399
4.60395
4.6038
4.60362
4.60347
4.60335
4.60346
4.60342
4.60332
4.60326
4.60324
4.60326
4.60333
4.60343
4.60349
4.60382
4.60412
4.60443
4.60477
4.60512
4.60547
4.60583
4.60618
4.6065
4.60681
4.60708
4.60733
4.60753
4.60765
4.60761
4.60767
4.6077
4.60772
4.60768
4.60766
4.60769
4.6077
4.60771
4.60773
4.60773
4.60773
4.6077
4.60767
4.60767
4.60766
4.44194
4.44193
4.44191
4.44188
4.44183
4.44179
4.44174
4.44165
4.44155
4.44143
4.44129
4.44113
4.44096
4.44078
4.44061
4.4405
4.44041
4.44024
4.44002
4.43984
4.43968
4.4397
4.43967
4.43956
4.43948
4.43945
4.43947
4.43955
4.43967
4.43977
4.44013
4.44049
4.44086
4.44126
4.44168
4.44211
4.44253
4.44294
4.44332
4.44367
4.44399
4.44427
4.4445
4.44461
4.44461
4.44467
4.44473
4.44472
4.44471
4.44472
4.44476
4.44478
4.44479
4.44481
4.44481
4.44479
4.44476
4.44473
4.44473
4.44472
4.28966
4.28966
4.28963
4.28959
4.28954
4.28949
4.28942
4.28932
4.28921
4.28908
4.28893
4.28873
4.28855
4.28834
4.28814
4.28799
4.28788
4.28766
4.28741
4.28717
4.28696
4.28682
4.28686
4.28677
4.28666
4.28661
4.28663
4.28672
4.28687
4.287
4.28741
4.28783
4.28827
4.28874
4.28924
4.28974
4.29024
4.29072
4.29116
4.29157
4.29195
4.29225
4.29243
4.29253
4.29263
4.29274
4.29281
4.29281
4.2928
4.29284
4.29287
4.29288
4.29289
4.2929
4.2929
4.29288
4.29285
4.29282
4.29282
4.2928
4.14734
4.14733
4.1473
4.14726
4.1472
4.14714
4.14706
4.14695
4.14682
4.14667
4.1465
4.14629
4.14607
4.14585
4.14561
4.14543
4.14528
4.14503
4.14473
4.14444
4.14418
4.14395
4.14398
4.14387
4.14374
4.14367
4.14368
4.14378
4.14394
4.14413
4.14459
4.14508
4.1456
4.14615
4.14674
4.14733
4.14791
4.14846
4.14898
4.14945
4.14986
4.15017
4.15029
4.15047
4.15064
4.15078
4.15086
4.15087
4.15088
4.15091
4.15094
4.15095
4.15095
4.15096
4.15095
4.15093
4.1509
4.15087
4.15086
4.15085
4.01403
4.01402
4.01398
4.01394
4.01387
4.0138
4.01372
4.01359
4.01345
4.01328
4.01309
4.01286
4.01262
4.01236
4.01209
4.01187
4.01167
4.01138
4.01105
4.0107
4.01039
4.01012
4.01004
4.00992
4.00977
4.00967
4.00967
4.00978
4.00997
4.0102
4.01072
4.01129
4.0119
4.01256
4.01325
4.01394
4.01461
4.01525
4.01583
4.01636
4.01681
4.01714
4.0173
4.01752
4.01772
4.01786
4.01792
4.01794
4.01798
4.01803
4.01805
4.01805
4.01805
4.01805
4.01803
4.018
4.01796
4.01793
4.01792
4.01791
3.88891
3.8889
3.88887
3.88881
3.88874
3.88867
3.88857
3.88843
3.88827
3.88809
3.88788
3.88762
3.88736
3.88707
3.88677
3.88649
3.88624
3.88592
3.88554
3.88515
3.88476
3.88442
3.88415
3.88408
3.88393
3.8838
3.88379
3.88389
3.88412
3.8844
3.88499
3.88565
3.88637
3.88715
3.88795
3.88875
3.88952
3.89025
3.89089
3.89144
3.89191
3.89225
3.89253
3.8928
3.89303
3.89317
3.89322
3.89326
3.89331
3.89335
3.89336
3.89335
3.89334
3.89333
3.89331
3.89327
3.89323
3.89319
3.89318
3.89316
3.77127
3.77126
3.77122
3.77116
3.77108
3.771
3.77089
3.77074
3.77057
3.77036
3.77014
3.76986
3.76957
3.76925
3.7689
3.76855
3.76823
3.7679
3.76749
3.76705
3.76659
3.76616
3.7658
3.7657
3.76549
3.76533
3.76529
3.7654
3.76564
3.76598
3.76666
3.76743
3.76828
3.76919
3.77013
3.77105
3.77194
3.77274
3.77345
3.77406
3.77451
3.77493
3.7753
3.77561
3.77584
3.77594
3.77601
3.77608
3.77613
3.77616
3.77616
3.77614
3.77612
3.77609
3.77606
3.77602
3.77596
3.77592
3.77591
3.77589
3.66045
3.66044
3.6604
3.66034
3.66025
3.66016
3.66004
3.65988
3.6597
3.65948
3.65923
3.65894
3.65862
3.65827
3.65788
3.65748
3.65711
3.65674
3.65627
3.65576
3.65523
3.65474
3.65429
3.65408
3.65382
3.65361
3.65353
3.65363
3.65391
3.65432
3.65509
3.656
3.657
3.65806
3.65915
3.66022
3.6612
3.66209
3.66289
3.66358
3.66409
3.66456
3.66497
3.6653
3.66551
3.66561
3.66569
3.66576
3.6658
3.66581
3.6658
3.66576
3.66573
3.66569
3.66564
3.66559
3.66553
3.66549
3.66546
3.66544
3.5559
3.55589
3.55584
3.55578
3.55568
3.55558
3.55545
3.55529
3.55509
3.55486
3.55459
3.55427
3.55393
3.55355
3.55313
3.55269
3.55225
3.55182
3.55131
3.55073
3.55013
3.54953
3.54901
3.5486
3.5484
3.54811
3.54799
3.54808
3.5484
3.54888
3.54977
3.55085
3.55202
3.55327
3.55454
3.55577
3.55677
3.55775
3.55859
3.55935
3.55998
3.56053
3.56096
3.56126
3.56144
3.56156
3.56166
3.56172
3.56174
3.56173
3.5617
3.56165
3.56159
3.56154
3.56148
3.56141
3.56135
3.5613
3.56127
3.56125
3.4571
3.45708
3.45703
3.45696
3.45687
3.45676
3.45662
3.45644
3.45623
3.45599
3.4557
3.45537
3.455
3.45459
3.45414
3.45365
3.45313
3.45261
3.45206
3.45144
3.45077
3.45008
3.44945
3.449
3.49691
3.4967
3.49653
3.49661
3.49694
3.49746
3.49842
3.49959
3.50087
3.50224
3.50362
3.50494
3.4589
3.45926
3.46019
3.46104
3.46175
3.46232
3.46275
3.46301
3.46318
3.46332
3.46341
3.46345
3.46345
3.46342
3.46336
3.46329
3.46321
3.46314
3.46306
3.46298
3.46291
3.46285
3.46281
3.46279
3.36359
3.36357
3.36352
3.36345
3.36335
3.36323
3.36309
3.3629
3.36268
3.36242
3.36212
3.36177
3.36138
3.36095
3.36046
3.35992
3.35934
3.35873
3.35811
3.35746
3.35671
3.35593
3.35528
3.40036
3.39832
3.39816
3.3979
3.39793
3.39828
3.3989
3.40002
3.40141
3.40295
3.40457
3.40619
3.40765
3.41092
3.36688
3.3673
3.36818
3.36892
3.36949
3.36989
3.37014
3.3703
3.37042
3.37049
3.3705
3.37047
3.37041
3.37032
3.37022
3.37012
3.37003
3.36993
3.36984
3.36975
3.36969
3.36964
3.36962
3.27497
3.27494
3.2749
3.27482
3.27472
3.2746
3.27444
3.27425
3.27402
3.27374
3.27343
3.27306
3.27266
3.2722
3.27169
3.27111
3.27048
3.2698
3.26911
3.26839
3.26757
3.26669
3.26599
3.3071
3.30512
3.32746
3.32718
3.32717
3.32754
3.32823
3.32951
3.33109
3.33286
3.33471
3.33654
3.31629
3.31908
3.2795
3.27947
3.28036
3.28109
3.28162
3.28197
3.2822
3.28236
3.28245
3.28248
3.28245
3.28238
3.28228
3.28216
3.28204
3.28191
3.28179
3.28168
3.28157
3.28147
3.28139
3.28135
3.28132
3.19086
3.19084
3.19079
3.19071
3.19061
3.19048
3.19032
3.19012
3.18988
3.1896
3.18927
3.18889
3.18847
3.18799
3.18745
3.18685
3.18617
3.18544
3.18465
3.18383
3.18296
3.18201
3.18135
3.21871
3.2168
3.237
3.23681
3.23673
3.23714
3.23803
3.23948
3.24136
3.24348
3.24566
3.2477
3.23045
3.23231
3.19688
3.1964
3.19722
3.19788
3.19834
3.19865
3.19886
3.19899
3.19903
3.19901
3.19893
3.19882
3.19868
3.19852
3.19836
3.19821
3.19806
3.19792
3.1978
3.19769
3.1976
3.19755
3.19751
3.11095
3.11092
3.11087
3.11079
3.11068
3.11055
3.11039
3.11018
3.10993
3.10964
3.10931
3.10892
3.10848
3.10799
3.10742
3.10679
3.10609
3.10531
3.10445
3.10353
3.10257
3.10158
3.10103
3.135
3.133
3.15124
3.15119
3.15119
3.15182
3.15304
3.15489
3.15715
3.15958
3.16198
3.16428
3.14935
3.15053
3.11873
3.11777
3.11842
3.11898
3.11937
3.11964
3.1198
3.11986
3.11983
3.11974
3.11961
3.11944
3.11926
3.11906
3.11887
3.11867
3.1185
3.11834
3.1182
3.11807
3.11797
3.11791
3.11787
3.03492
3.03489
3.03484
3.03476
3.03465
3.03451
3.03434
3.03413
3.03388
3.03359
3.03324
3.03284
3.0324
3.03189
3.03131
3.03066
3.02994
3.02913
3.02822
3.02723
3.02618
3.02512
3.02474
3.05565
3.05364
3.07028
3.07019
3.07085
3.0724
3.07471
3.07735
3.07983
3.08212
3.08422
3.08635
3.07322
3.07361
3.04479
3.04327
3.04368
3.04413
3.04444
3.04462
3.04468
3.04465
3.04454
3.04438
3.04418
3.04395
3.04371
3.04347
3.04323
3.04301
3.04281
3.04262
3.04246
3.04232
3.04221
3.04214
3.0421
2.9625
2.96247
2.96242
2.96234
2.96222
2.96209
2.96192
2.9617
2.96145
2.96115
2.9608
2.9604
2.95994
2.95942
2.95884
2.95818
2.95744
2.95661
2.95568
2.95466
2.95356
2.95245
2.95227
2.98043
2.97864
2.99384
2.99456
2.99717
3.00256
3.00923
3.01382
3.01489
3.01428
3.01408
3.01455
3.00213
3.0014
2.97487
2.97277
2.97286
2.97311
2.97326
2.97329
2.97323
2.97309
2.97288
2.97264
2.97236
2.97207
2.97177
2.97148
2.9712
2.97094
2.97071
2.97049
2.97031
2.97015
2.97003
2.96995
2.96991
2.89345
2.89342
2.89336
2.89328
2.89317
2.89303
2.89286
2.89264
2.89239
2.89209
2.89174
2.89133
2.89087
2.89035
2.88976
2.88909
2.88835
2.88751
2.88658
2.88556
2.88446
2.88338
2.88339
2.90907
2.90797
2.9225
2.92544
2.93558
2.95859
2.9892
2.99987
2.98496
2.9662
2.95509
2.95011
2.93647
2.9338
2.90878
2.90603
2.90567
2.90563
2.90556
2.9054
2.90519
2.90491
2.9046
2.90426
2.9039
2.90354
2.90318
2.90283
2.90251
2.90221
2.90194
2.9017
2.9015
2.90132
2.90119
2.9011
2.90105
2.82754
2.82751
2.82745
2.82737
2.82726
2.82712
2.82694
2.82673
2.82647
2.82617
2.82582
2.82541
2.82495
2.82443
2.82385
2.82318
2.82244
2.82161
2.82069
2.8197
2.81864
2.81767
2.81802
2.84152
2.84149
2.8566
2.8663
2.9043
3.03661
3.29056
3.31642
3.11382
2.97104
2.91537
2.89517
2.87646
2.87068
2.8464
2.84279
2.84185
2.84142
2.84107
2.8407
2.84031
2.83989
2.83945
2.839
2.83856
2.83812
2.8377
2.8373
2.83692
2.83659
2.83628
2.83602
2.83579
2.8356
2.83545
2.83536
2.83531
2.76456
2.76453
2.76447
2.76439
2.76428
2.76414
2.76397
2.76375
2.76349
2.76319
2.76285
2.76244
2.76198
2.76147
2.76089
2.76023
2.7595
2.75869
2.7578
2.75685
2.75588
2.75507
2.7558
2.77767
2.77933
2.79604
2.82169
2.96157
3.80291
8.44252
7.8318
4.41643
3.14556
2.90807
2.85096
2.82232
2.81196
2.78732
2.78271
2.78108
2.78023
2.77956
2.77894
2.77835
2.77778
2.77721
2.77665
2.77611
2.7756
2.77511
2.77465
2.77424
2.77386
2.77352
2.77323
2.77298
2.77278
2.77262
2.77252
2.77246
2.70432
2.70429
2.70423
2.70415
2.70404
2.7039
2.70373
2.70352
2.70327
2.70297
2.70262
2.70222
2.70177
2.70126
2.70069
2.70005
2.69933
2.69854
2.69769
2.69681
2.69594
2.69531
2.69643
2.71705
2.72067
2.74043
2.79105
3.14616
9.0777
16.2907
3.68261
2.93481
2.81589
2.77276
2.75687
2.73111
2.72543
2.72308
2.72176
2.72075
2.71988
2.71909
2.71835
2.71765
2.71698
2.71635
2.71576
2.71521
2.7147
2.71424
2.71382
2.71346
2.71314
2.71288
2.71265
2.71249
2.71238
2.71232
2.64666
2.64663
2.64657
2.64649
2.64638
2.64624
2.64607
2.64586
2.64561
2.64532
2.64498
2.64458
2.64414
2.64364
2.64308
2.64245
2.64175
2.64099
2.64018
2.63936
2.63859
2.63814
2.63956
2.65918
2.66462
2.6879
2.76109
3.27658
19.8891
37.973
30.7782
4.06506
2.95709
2.78275
2.72565
2.70443
2.67739
2.67068
2.66764
2.66588
2.66453
2.66339
2.66239
2.66149
2.66065
2.65987
2.65915
2.65848
2.65786
2.6573
2.65679
2.65634
2.65594
2.6556
2.65531
2.65508
2.6549
2.65478
2.65472
2.5914
2.59137
2.59132
2.59124
2.59113
2.591
2.59083
2.59062
2.59038
2.59009
2.58975
2.58937
2.58893
2.58844
2.58789
2.58727
2.58659
2.58585
2.58508
2.5843
2.5836
2.58332
2.58501
2.60371
2.61083
2.63672
2.72312
3.27308
30.0084
6.54404
1.67271
18.5315
4.06729
2.94409
2.74518
2.67871
2.65374
2.62566
2.6181
2.61448
2.61231
2.61063
2.60925
2.60805
2.60698
2.60601
2.60513
2.60431
2.60357
2.60289
2.60227
2.60172
2.60122
2.6008
2.60043
2.60013
2.59987
2.59968
2.59956
2.59949
2.53842
2.53838
2.53833
2.53826
2.53815
2.53802
2.53785
2.53765
2.53741
2.53713
2.5368
2.53642
2.53599
2.53551
2.53497
2.53436
2.53369
2.53296
2.5322
2.53144
2.53076
2.53065
2.53251
2.55049
2.55889
2.58646
2.67795
3.19477
25.398
0.873764
1.08642
13.6379
3.94255
2.90682
2.7022
2.63111
2.60406
2.57558
2.56742
2.56336
2.56084
2.55888
2.55727
2.55589
2.55467
2.55357
2.55259
2.55169
2.55087
2.55013
2.54946
2.54887
2.54834
2.54788
2.54749
2.54717
2.5469
2.5467
2.54657
2.5465
2.48756
2.48753
2.48748
2.4874
2.4873
2.48717
2.48701
2.48681
2.48658
2.4863
2.48598
2.48561
2.48519
2.48471
2.48417
2.48356
2.48288
2.48212
2.48136
2.48062
2.48002
2.48005
2.48204
2.49932
2.5089
2.53781
2.63348
3.11259
22.3856
0.462029
1.41413
10.1213
3.77709
2.85411
2.6545
2.58286
2.55532
2.52699
2.51843
2.51407
2.51129
2.50909
2.50729
2.50574
2.50439
2.50318
2.5021
2.50112
2.50024
2.49945
2.49873
2.49809
2.49753
2.49705
2.49664
2.49629
2.49602
2.4958
2.49567
2.49559
2.43871
2.43868
2.43863
2.43855
2.43845
2.43833
2.43817
2.43798
2.43775
2.43748
2.43717
2.4368
2.43639
2.43591
2.43536
2.43471
2.43401
2.43328
2.43254
2.43184
2.43128
2.43141
2.43343
2.45008
2.46127
2.49103
2.5925
3.06945
15.4018
2.34495
3.14537
8.51767
3.61006
2.79006
2.60405
2.53426
2.50754
2.47985
2.47105
2.4665
2.4635
2.46111
2.45916
2.45748
2.45601
2.45471
2.45354
2.45249
2.45155
2.45071
2.44995
2.44928
2.44869
2.44818
2.44775
2.44739
2.4471
2.44688
2.44674
2.44666
2.39175
2.39172
2.39167
2.3916
2.3915
2.39138
2.39123
2.39104
2.39082
2.39056
2.39025
2.38989
2.38947
2.38895
2.38839
2.38778
2.38711
2.38641
2.38567
2.38497
2.38441
2.38462
2.38661
2.40273
2.41708
2.44413
2.5784
3.04215
10.6088
3.53181
0.983569
8.06542
3.46376
2.72159
2.55231
2.48642
2.46087
2.43397
2.42514
2.42046
2.41731
2.41478
2.41271
2.41096
2.40941
2.40803
2.40679
2.40568
2.40469
2.4038
2.40301
2.4023
2.40169
2.40116
2.40071
2.40034
2.40004
2.39981
2.39966
2.39958
2.34657
2.34654
2.3465
2.34643
2.34633
2.34622
2.34607
2.34589
2.34568
2.34542
2.34511
2.34475
2.34431
2.34381
2.34328
2.34269
2.34204
2.34134
2.3406
2.33989
2.33932
2.33956
2.3415
2.35732
2.37489
2.4073
2.69614
3.55856
7.49626
7.03612
1.32396
7.62773
3.32509
2.65525
2.50211
2.43959
2.41565
2.38962
2.38071
2.37594
2.37271
2.37011
2.36792
2.36607
2.36446
2.36302
2.36173
2.36058
2.35954
2.35861
2.35779
2.35706
2.35642
2.35588
2.35541
2.35503
2.35472
2.35448
2.35433
2.35425
2.30308
2.30305
2.30301
2.30294
2.30285
2.30274
2.3026
2.30243
2.30222
2.30195
2.30163
2.30125
2.30085
2.3004
2.29989
2.29932
2.29868
2.29798
2.29724
2.29652
2.29595
2.29618
2.29827
2.31442
2.33307
2.44226
3.58626
4.97862
6.46096
5.84594
0.84121
6.78403
3.18289
2.59468
2.45536
2.39425
2.3718
2.34661
2.33776
2.33297
2.32957
2.32693
2.32469
2.32274
2.32104
2.31956
2.31826
2.31707
2.316
2.31505
2.3142
2.31345
2.3128
2.31224
2.31176
2.31136
2.31105
2.31081
2.31065
2.31056
2.26119
2.26116
2.26111
2.26105
2.26096
2.26086
2.26072
2.26056
2.26034
2.26007
2.25975
2.25941
2.25903
2.2586
2.25811
2.25755
2.25692
2.25623
2.2555
2.25477
2.25423
2.2545
2.25702
2.27414
2.31295
2.64617
5.45133
5.15505
5.75022
2.92689
1.64507
5.89071
3.0426
2.5413
2.41251
2.35068
2.32938
2.30484
2.29613
2.2914
2.2879
2.28515
2.28288
2.28091
2.27916
2.27762
2.27627
2.27508
2.27399
2.27302
2.27215
2.27139
2.27072
2.27014
2.26966
2.26925
2.26893
2.26869
2.26853
2.26844
2.2208
2.22076
2.22073
2.22067
2.22059
2.22048
2.22035
2.22018
2.21996
2.2197
2.21942
2.2191
2.21874
2.21832
2.21784
2.2173
2.2167
2.21602
2.21531
2.21456
2.21414
2.21446
2.21782
2.23646
2.33835
2.93817
6.88023
5.02497
3.88468
2.27438
4.62748
5.20634
2.91146
2.49364
2.37343
2.30916
2.28831
2.2643
2.25575
2.25112
2.24758
2.24478
2.24241
2.24043
2.23866
2.23709
2.23571
2.2345
2.23342
2.23243
2.23156
2.23078
2.2301
2.22952
2.22902
2.22862
2.22829
2.22804
2.22788
2.22779
2.18184
2.1818
2.18177
2.18171
2.18163
2.18153
2.18139
2.18121
2.18102
2.18079
2.18053
2.18023
2.17988
2.17948
2.17902
2.1785
2.17792
2.17727
2.17658
2.17588
2.17556
2.17599
2.18069
2.20186
2.39963
3.26855
7.88429
6.46365
3.50145
3.10037
7.1701
4.54864
2.79268
2.44769
2.33894
2.26978
2.24845
2.22494
2.21658
2.21206
2.20849
2.20571
2.2033
2.20126
2.19945
2.19786
2.1965
2.19528
2.19419
2.19321
2.19233
2.19155
2.19087
2.19028
2.18978
2.18937
2.18904
2.18879
2.18863
2.18854
2.14423
2.1442
2.14416
2.14411
2.14403
2.14392
2.14379
2.14363
2.14345
2.14325
2.143
2.14271
2.14238
2.142
2.14157
2.14107
2.14052
2.13989
2.13922
2.13861
2.13839
2.13902
2.14558
2.17089
2.47051
3.5603
8.53095
8.15188
3.36445
4.06768
8.52215
3.90301
2.68652
2.39987
2.31
2.2325
2.20967
2.18673
2.17857
2.17417
2.1706
2.16785
2.16543
2.16338
2.16157
2.15997
2.15856
2.15735
2.15625
2.15528
2.15441
2.15363
2.15295
2.15236
2.15186
2.15145
2.15111
2.15087
2.15071
2.15061
2.10791
2.10787
2.10784
2.10779
2.10771
2.1076
2.10749
2.10735
2.10718
2.10699
2.10676
2.10649
2.10618
2.10582
2.10541
2.10494
2.1044
2.10379
2.1032
2.10267
2.10253
2.10346
2.11241
2.14356
2.53097
3.75181
8.64848
9.36183
3.17681
4.70011
8.88949
3.52343
2.59174
2.34921
2.28579
2.19709
2.17194
2.14967
2.14165
2.13739
2.13384
2.13113
2.12873
2.12669
2.12489
2.1233
2.12188
2.12063
2.11955
2.11858
2.11771
2.11695
2.11627
2.11569
2.11519
2.11477
2.11445
2.1142
2.11404
2.11394
2.0728
2.07277
2.07274
2.07268
2.0726
2.07252
2.07241
2.07229
2.07213
2.07195
2.07174
2.07148
2.07119
2.07086
2.07048
2.07003
2.0695
2.06895
2.06843
2.06797
2.0679
2.06922
2.08104
2.11939
2.57279
3.86597
8.28154
10.7791
3.26772
5.14646
8.61166
3.26218
2.5067
2.29735
2.26369
2.16322
2.13531
2.11373
2.1058
2.10168
2.09817
2.09552
2.09313
2.09113
2.08934
2.08777
2.08636
2.08511
2.08401
2.08305
2.0822
2.08144
2.08078
2.0802
2.07971
2.0793
2.07897
2.07872
2.07856
2.07846
2.03886
2.03882
2.03879
2.03874
2.03867
2.0386
2.0385
2.03838
2.03824
2.03807
2.03788
2.03764
2.03738
2.03707
2.03671
2.03628
2.0358
2.0353
2.03484
2.03444
2.03444
2.03621
2.05128
2.09773
2.59602
3.92509
7.78795
12.1809
3.30602
5.45076
8.11566
3.07946
2.42978
2.24706
2.24063
2.13047
2.09984
2.07888
2.07097
2.06699
2.06354
2.06095
2.05861
2.05664
2.05488
2.05333
2.05195
2.05071
2.04961
2.04864
2.0478
2.04705
2.0464
2.04584
2.04535
2.04495
2.04462
2.04438
2.04422
2.04412
2.00602
2.00598
2.00595
2.0059
2.00585
2.00578
2.00569
2.00559
2.00546
2.0053
2.00512
2.00491
2.00466
2.00438
2.00404
2.00363
2.0032
2.00276
2.00235
2.002
2.00207
2.00435
2.02293
2.07789
2.60445
3.95836
7.35383
12.4691
3.42596
5.71227
7.65323
2.94958
2.36205
2.20025
2.21412
2.09843
2.06564
2.04512
2.03712
2.03327
2.02991
2.0274
2.0251
2.02319
2.02146
2.01994
2.01858
2.01737
2.01628
2.01531
2.01446
2.01374
2.0131
2.01255
2.01208
2.01168
2.01136
2.01112
2.01096
2.01086
1.97422
1.97418
1.97416
1.97412
1.97407
1.97401
1.97393
1.97384
1.97372
1.97358
1.97342
1.97322
1.973
1.97274
1.97242
1.97204
1.97167
1.97127
1.9709
1.97061
1.97074
1.97356
1.99574
2.05909
2.60605
3.97747
7.0047
11.7729
3.68113
5.63763
7.27645
2.85754
2.30544
2.15715
2.18319
2.06674
2.03274
2.01239
2.00423
2.00051
1.99725
1.99482
1.99258
1.99072
1.98903
1.98755
1.98622
1.98503
1.98397
1.98302
1.98217
1.98144
1.98082
1.98028
1.97982
1.97944
1.97912
1.97889
1.97873
1.97863
1.94343
1.94339
1.94337
1.94333
1.94329
1.94324
1.94317
1.94308
1.94298
1.94286
1.94271
1.94253
1.94233
1.94208
1.94178
1.94146
1.94112
1.94077
1.94044
1.9402
1.9404
1.94377
1.96952
2.04059
2.59949
3.98409
6.71226
11.1204
3.98802
5.22507
7.00209
2.80243
2.25571
2.11729
2.14828
2.03507
2.00115
1.98067
1.97225
1.96866
1.96552
1.96317
1.961
1.95919
1.95755
1.95611
1.95481
1.95365
1.95262
1.95169
1.95087
1.95014
1.94951
1.94899
1.94855
1.94817
1.94787
1.94764
1.94749
1.94739
1.91359
1.91355
1.91353
1.9135
1.91346
1.91342
1.91336
1.91329
1.91319
1.91309
1.91295
1.9128
1.91261
1.91237
1.91211
1.91183
1.91153
1.91121
1.91093
1.91072
1.91098
1.91492
1.94406
2.02184
2.58598
3.97539
6.45164
10.8295
4.43567
4.92157
6.83029
2.77763
2.20998
2.08019
2.11039
2.0033
1.97086
1.94991
1.94117
1.9377
1.93469
1.93242
1.93032
1.92858
1.92698
1.92559
1.92433
1.9232
1.92219
1.92129
1.92049
1.91978
1.91916
1.91863
1.9182
1.91784
1.91755
1.91733
1.91718
1.91708
1.88466
1.88462
1.8846
1.88458
1.88454
1.88451
1.88446
1.88439
1.88431
1.88422
1.8841
1.88396
1.88379
1.88357
1.88335
1.8831
1.88283
1.88255
1.8823
1.88214
1.88246
1.88695
1.91922
2.00202
2.56498
3.94996
6.20816
10.5089
5.03475
4.95438
6.75222
2.766
2.16907
2.04553
2.0711
1.97142
1.9418
1.92007
1.91094
1.90761
1.90473
1.90254
1.90052
1.89884
1.8973
1.89595
1.89473
1.89364
1.89266
1.89178
1.891
1.89031
1.8897
1.88919
1.88875
1.8884
1.88812
1.88791
1.88777
1.88767
1.85659
1.85656
1.85654
1.85652
1.85649
1.85646
1.85642
1.85637
1.8563
1.85622
1.85612
1.85599
1.85582
1.85564
1.85545
1.85523
1.85499
1.85474
1.85453
1.8544
1.85478
1.85982
1.89493
1.98137
2.53932
3.90938
5.97961
10.1337
5.52766
5.398
6.73676
2.7731
2.13099
2.01244
2.03215
1.93951
1.91385
1.89112
1.88155
1.87834
1.87561
1.8735
1.87156
1.86994
1.86846
1.86716
1.86598
1.86492
1.86397
1.86312
1.86236
1.86169
1.8611
1.8606
1.86017
1.85982
1.85955
1.85935
1.85922
1.85912
1.82935
1.82932
1.82931
1.82929
1.82927
1.82924
1.82921
1.82917
1.82911
1.82905
1.82896
1.82884
1.8287
1.82854
1.82837
1.82818
1.82797
1.82775
1.82757
1.82747
1.82791
1.83345
1.87106
1.96028
2.51143
4.01948
6.05253
11.0552
8.13264
8.16187
6.18555
2.60551
2.06023
1.97237
1.98079
1.90748
1.88675
1.86302
1.85297
1.8499
1.8473
1.84527
1.84342
1.84186
1.84043
1.83918
1.83804
1.83702
1.8361
1.83528
1.83454
1.83389
1.83332
1.83283
1.83242
1.83207
1.8318
1.83161
1.83148
1.83139
1.80291
1.80287
1.80286
1.80285
1.80284
1.80282
1.80279
1.80276
1.80272
1.80266
1.80258
1.80247
1.80236
1.80223
1.80208
1.80191
1.80173
1.80154
1.80139
1.80131
1.8018
1.80781
1.84798
2.01661
2.48237
3.95483
5.77623
9.92589
6.63105
6.80762
5.91721
2.587
2.02519
1.94106
1.94507
1.87574
1.84628
1.83572
1.82517
1.82224
1.81978
1.81782
1.81605
1.81456
1.81318
1.81198
1.81088
1.8099
1.80901
1.80822
1.8075
1.80687
1.80632
1.80585
1.80545
1.80511
1.80485
1.80466
1.80454
1.80445
1.77722
1.77719
1.77718
1.77717
1.77716
1.77715
1.77713
1.77711
1.77707
1.77703
1.77696
1.77687
1.77677
1.77667
1.77654
1.77639
1.77623
1.77607
1.77594
1.77589
1.77643
1.78285
1.82524
1.99654
2.75777
4.17916
5.93986
5.97407
3.42279
5.04562
4.52628
2.3232
1.94353
1.89826
1.87957
1.82323
1.82084
1.80905
1.79814
1.79535
1.79301
1.79114
1.78945
1.78801
1.7867
1.78554
1.78448
1.78353
1.78268
1.78191
1.78122
1.78061
1.78008
1.77962
1.77923
1.77891
1.77865
1.77846
1.77835
1.77826
1.75225
1.75222
1.75222
1.75221
1.75221
1.7522
1.75219
1.75218
1.75215
1.75211
1.75205
1.75198
1.75191
1.75182
1.75171
1.75158
1.75145
1.75131
1.75121
1.75117
1.75176
1.75856
1.80264
1.97603
2.72814
4.07327
5.54215
4.90291
2.42874
3.98145
4.24698
2.28505
1.91285
1.86813
1.84914
1.79531
1.79584
1.78302
1.77187
1.76922
1.76699
1.76518
1.76357
1.76219
1.76093
1.75982
1.7588
1.75789
1.75707
1.75633
1.75566
1.75508
1.75456
1.75412
1.75374
1.75342
1.75318
1.75299
1.75287
1.75279
1.72798
1.72795
1.72795
1.72795
1.72795
1.72795
1.72795
1.72794
1.72792
1.72789
1.72784
1.72779
1.72774
1.72766
1.72757
1.72746
1.72735
1.72723
1.72715
1.72713
1.72776
1.73492
1.78032
1.95538
2.69782
3.96935
5.17859
4.05449
1.73997
3.16025
3.98768
2.24794
1.8832
1.839
1.81998
1.7682
1.77133
1.75765
1.74633
1.7438
1.74167
1.73994
1.7384
1.73708
1.73587
1.7348
1.73383
1.73295
1.73215
1.73144
1.7308
1.73023
1.72973
1.7293
1.72894
1.72864
1.7284
1.72822
1.7281
1.72802
1.70438
1.70434
1.70434
1.70435
1.70435
1.70436
1.70436
1.70436
1.70435
1.70433
1.7043
1.70426
1.70422
1.70416
1.70409
1.704
1.7039
1.7038
1.70375
1.70374
1.70441
1.71189
1.75839
1.93474
2.66691
3.86771
4.84545
3.3748
1.2573
2.5205
3.7473
2.21199
1.85457
1.81084
1.79199
1.74191
1.74739
1.73296
1.7215
1.71908
1.71704
1.71538
1.71391
1.71264
1.71148
1.71046
1.70952
1.70867
1.70791
1.70722
1.7066
1.70606
1.70558
1.70516
1.70481
1.70452
1.70428
1.70411
1.704
1.70391
1.6814
1.68137
1.68138
1.68138
1.68139
1.6814
1.68141
1.68142
1.68142
1.6814
1.68139
1.68137
1.68134
1.6813
1.68124
1.68116
1.68109
1.68101
1.68097
1.68097
1.68167
1.68946
1.73685
1.91412
2.63571
3.76832
4.53944
2.82491
0.915884
2.01805
3.5238
2.17731
1.82692
1.78364
1.76512
1.7164
1.724
1.70892
1.69734
1.69502
1.69308
1.69148
1.69008
1.68886
1.68775
1.68676
1.68586
1.68505
1.68431
1.68365
1.68305
1.68253
1.68206
1.68166
1.68132
1.68104
1.68081
1.68064
1.68053
1.68045
1.65904
1.65901
1.65902