/*--------------------------------*- C++ -*----------------------------------*\
  =========                 |
  \\      /  F ield         | OpenFOAM: The Open Source CFD Toolbox
   \\    /   O peration     | Website:  https://openfoam.org
    \\  /    A nd           | Version:  12
     \\/     M anipulation  |
\*---------------------------------------------------------------------------*/
FoamFile
{
    format      ascii;
    class       volScalarField;
    location    "100";
    object      p;
}
// * * * * * * * * * * * * * * * * * * * * * * * * * * * * * * * * * * * * * //

dimensions      [0 2 -2 0 0 0 0];

internalField   nonuniform List<scalar> 
16227
(
0.0521911
0.0522027
0.0522253
0.0522579
0.0522987
0.0523456
0.0523957
0.0524455
0.0524911
0.0525277
0.0525501
0.0525527
0.052529
0.0524721
0.0523747
0.0522289
0.0520268
0.0517601
0.0514207
0.0510003
0.0504915
0.0498869
0.0491801
0.048366
0.0474402
0.0464003
0.0452453
0.0439759
0.0425949
0.0411068
0.039518
0.0378367
0.036073
0.0342381
0.0323444
0.0304053
0.0284347
0.0264468
0.0244558
0.0224756
0.0205196
0.0186006
0.0167304
0.0149198
0.0131788
0.0115161
0.0099396
0.00845587
0.00707065
0.00578881
0.00461433
0.00355048
0.0025999
0.00176451
0.00104603
0.000445827
-3.51448e-05
-0.000396281
-0.000637278
-0.000758031
0.0521827
0.0521947
0.0522182
0.052252
0.0522945
0.0523435
0.0523961
0.0524489
0.0524979
0.0525384
0.0525651
0.0525724
0.0525538
0.0525023
0.0524105
0.0522707
0.0520746
0.051814
0.0514805
0.0510659
0.0505623
0.0499624
0.0492596
0.0484484
0.0475246
0.0464855
0.0453298
0.0440584
0.042674
0.0411808
0.0395857
0.0378971
0.036125
0.0342809
0.0323774
0.030428
0.0284469
0.0264485
0.0244473
0.0224572
0.0204918
0.0185641
0.0166858
0.014868
0.0131206
0.0114523
0.00987079
0.00838285
0.00699409
0.00570933
0.00453245
0.00346663
0.0025144
0.00167782
0.00095858
0.000357792
-0.000123601
-0.000485044
-0.000726192
-0.000846945
0.0521646
0.0521775
0.0522028
0.0522394
0.0522856
0.0523392
0.0523974
0.0524568
0.0525133
0.0525624
0.0525986
0.0526163
0.0526089
0.0525694
0.0524903
0.0523635
0.0521809
0.0519337
0.0516134
0.0512114
0.0507195
0.05013
0.0494359
0.0486313
0.0477118
0.0466742
0.0455172
0.0442413
0.0428492
0.0413452
0.0397363
0.0380314
0.0362407
0.034376
0.0324506
0.0304783
0.0284739
0.0264523
0.0244282
0.0224162
0.02043
0.0184829
0.0165869
0.014753
0.0129912
0.0113104
0.00971803
0.0082208
0.00682427
0.00553305
0.00435085
0.00328069
0.00232498
0.00148587
0.000764817
0.000162687
-0.000319655
-0.000681765
-0.000923328
-0.00104424
0.0521345
0.0521489
0.0521773
0.0522185
0.0522709
0.0523322
0.0523999
0.0524703
0.0525395
0.0526029
0.0526552
0.0526903
0.0527018
0.0526826
0.0526248
0.0525203
0.0523603
0.0521359
0.051838
0.0514574
0.0509854
0.0504135
0.0497343
0.0489411
0.0480288
0.0469939
0.0458346
0.0445512
0.0431461
0.0416238
0.0399915
0.0382587
0.0364363
0.0345367
0.0325739
0.0305627
0.0285186
0.0264575
0.0243947
0.0223455
0.0203242
0.0183443
0.0164183
0.0145574
0.0127716
0.0110696
0.0094591
0.00794641
0.00653695
0.00523503
0.00404405
0.00296674
0.0020054
0.00116232
0.000438236
-0.000166097
-0.000649991
-0.00101316
-0.0012554
-0.00137663
0.0520905
0.052107
0.0521395
0.0521871
0.052248
0.0523201
0.0524007
0.0524864
0.0525733
0.0526566
0.052731
0.0527904
0.0528283
0.0528374
0.0528096
0.0527362
0.0526082
0.0524162
0.0521501
0.0517999
0.0513561
0.0508095
0.0501517
0.0493751
0.0484737
0.0474431
0.0462809
0.0449872
0.0435641
0.0420161
0.040351
0.038579
0.0367118
0.0347628
0.0327471
0.0306809
0.0285809
0.026464
0.0243468
0.0222454
0.0201748
0.0181493
0.0161815
0.014283
0.0124639
0.0107329
0.00909733
0.00756346
0.00613632
0.00481983
0.00361686
0.00252993
0.00156149
0.000713118
-1.49557e-05
-0.000622136
-0.00110803
-0.00147257
-0.00171565
-0.00183726
0.0520297
0.0520488
0.0520866
0.0521421
0.0522137
0.0522993
0.0523961
0.052501
0.05261
0.0527184
0.052821
0.0529113
0.0529827
0.0530279
0.0530385
0.0530052
0.0529186
0.0527684
0.0525439
0.0522334
0.0518269
0.051314
0.0506849
0.0499308
0.0490444
0.0480204
0.0468555
0.0455492
0.0441035
0.0425227
0.0408154
0.0389927
0.0370674
0.0350544
0.0329702
0.0308328
0.0286604
0.0264716
0.0242843
0.0221158
0.0199822
0.0178984
0.0158776
0.0139317
0.0120706
0.0103032
0.00863655
0.00707641
0.00562755
0.00429314
0.00307555
0.00197723
0.00100068
0.000146019
-0.000586669
-0.00119708
-0.00168519
-0.00205126
-0.00229523
-0.00241725
0.0519492
0.0519715
0.0520155
0.0520805
0.0521648
0.0522665
0.0523829
0.0525109
0.0526465
0.0527852
0.0529218
0.0530499
0.0531623
0.0532518
0.0533095
0.0533259
0.0532907
0.0531928
0.0530202
0.0527601
0.0524011
0.0519315
0.0513397
0.0506151
0.049749
0.0487347
0.0475678
0.0462469
0.0447736
0.0431525
0.0413927
0.0395068
0.0375089
0.0354156
0.0332457
0.0310193
0.0287567
0.0264784
0.0242042
0.0219529
0.0197418
0.0175867
0.0155014
0.0134979
0.0115866
0.00977569
0.0080721
0.00648116
0.00500686
0.00365155
0.00241738
0.00130685
0.000321279
-0.000540206
-0.00127772
-0.00189145
-0.00238181
-0.00274932
-0.0029941
-0.00311649
0.0518462
0.0518721
0.0519235
0.0519994
0.0520985
0.0522189
0.0523581
0.0525129
0.0526798
0.0528541
0.0530308
0.0532036
0.053365
0.0535072
0.0536217
0.053698
0.0537252
0.0536911
0.0535825
0.0533848
0.0530851
0.0526701
0.0521255
0.0514392
0.0506
0.0495995
0.0484318
0.0470945
0.0455886
0.0439188
0.0420951
0.0401316
0.0380444
0.0358526
0.0335774
0.0312418
0.0288688
0.0264814
0.0241018
0.0217505
0.0194465
0.0172062
0.0150443
0.0129732
0.011003
0.00914179
0.00739584
0.00576993
0.00426698
0.00288841
0.00163634
0.000513359
-0.000481658
-0.00134998
-0.00209213
-0.00270895
-0.00320122
-0.00356984
-0.0038152
-0.00393783
0.0517175
0.0517475
0.051807
0.0518954
0.0520112
0.0521528
0.0523179
0.0525034
0.052706
0.0529212
0.0531441
0.0533686
0.0535871
0.0537914
0.0539725
0.0541197
0.0542213
0.054264
0.0542327
0.0541112
0.0538846
0.0535373
0.0530523
0.0524147
0.0516108
0.0506297
0.0494635
0.0481084
0.0465646
0.0448368
0.0429362
0.0408789
0.0386834
0.0363718
0.033969
0.0315012
0.0289952
0.0264769
0.0239714
0.0215014
0.0190876
0.0167477
0.014497
0.012348
0.0103106
0.00839259
0.00659949
0.00493491
0.00340052
0.0019974
0.000727691
-0.000407849
-0.00141211
-0.00228662
-0.00303276
-0.00365191
-0.00414538
-0.00451453
-0.00476004
-0.00488271
0.0515592
0.0515937
0.0516622
0.0517643
0.0518987
0.0520638
0.0522577
0.0524775
0.0527201
0.0529814
0.0532566
0.0535398
0.0538237
0.0540994
0.0543578
0.0545881
0.0547772
0.0549106
0.0549719
0.0549425
0.054805
0.0545411
0.0541305
0.0535547
0.0527968
0.0518426
0.0506816
0.0493079
0.0477207
0.0459247
0.0439324
0.0417625
0.0394366
0.0369809
0.0344246
0.0317984
0.0291335
0.0264598
0.0238057
0.0211967
0.0186552
0.0162005
0.0138484
0.0116113
0.00949905
0.00751847
0.00567418
0.00396819
0.00240088
0.00097289
-0.000313219
-0.00146076
-0.00247319
-0.00335264
-0.0041014
-0.00472154
-0.00521505
-0.0055838
-0.00582884
-0.00595121
0.0513666
0.051406
0.0514844
0.0516013
0.0517559
0.0519466
0.0521719
0.0524294
0.0527162
0.0530285
0.0533619
0.0537108
0.0540684
0.0544255
0.0547724
0.0550983
0.0553894
0.0556295
0.0558006
0.0558816
0.055852
0.0556903
0.0553721
0.0548747
0.0541765
0.0532592
0.0521088
0.0507168
0.0490806
0.047205
0.0451039
0.0427995
0.0403173
0.0376887
0.0349487
0.0321336
0.0292801
0.0264232
0.0235952
0.0208248
0.0181366
0.0155512
0.0130849
0.0107503
0.008556
0.00650804
0.00460932
0.0028603
0.00126027
-0.000190667
-0.00149191
-0.00264981
-0.0036683
-0.00455042
-0.00529962
-0.00591881
-0.00641073
-0.00677781
-0.00702146
-0.00714309
0.0511349
0.0511794
0.0512683
0.051401
0.0515771
0.0517953
0.0520544
0.0523525
0.0526872
0.0530552
0.0534525
0.053874
0.0543135
0.054762
0.0552093
0.0556443
0.0560532
0.0564175
0.0567183
0.0569312
0.0570319
0.0569949
0.0567913
0.0563928
0.0557721
0.0549054
0.0537736
0.0523647
0.0506739
0.0487057
0.046476
0.0440108
0.0413415
0.0385058
0.035546
0.0325062
0.0294298
0.0263578
0.0233274
0.020371
0.0175157
0.0147833
0.0121904
0.00974887
0.00746655
0.00534747
0.00339217
0.00160011
-3.02141e-05
-0.00150068
-0.00281459
-0.00397978
-0.0050009
-0.00588247
-0.00662906
-0.00724463
-0.00773276
-0.00809642
-0.00833752
-0.0084578
0.0508587
0.0509086
0.0510083
0.0511577
0.0513562
0.0516034
0.0518982
0.0522394
0.0526252
0.0530531
0.0535196
0.0540203
0.0545497
0.0550997
0.0556598
0.0562185
0.0567617
0.0572699
0.0577224
0.0580921
0.0583496
0.0584648
0.0584035
0.0581301
0.0576099
0.0568118
0.0557103
0.0542881
0.0525373
0.0504616
0.0480794
0.0454223
0.0425283
0.0394442
0.0362217
0.0329146
0.0295748
0.026251
0.0229861
0.0198167
0.0167725
0.0138764
0.0111447
0.00858831
0.0062133
0.00402104
0.00200952
0.000177084
-0.00147905
-0.00296533
-0.00428777
-0.00545544
-0.00647439
-0.00735101
-0.00809097
-0.00869946
-0.00918091
-0.00953896
-0.00977604
-0.00989421
0.0505325
0.050588
0.0506988
0.0508651
0.0510868
0.0513638
0.0516957
0.052082
0.0525215
0.0530127
0.0535531
0.0541391
0.054766
0.055427
0.0561122
0.0568099
0.0575055
0.0581791
0.0588083
0.0593632
0.059809
0.06011
0.0602254
0.0601102
0.0597206
0.0590156
0.0579608
0.0565317
0.0547159
0.0525157
0.0499527
0.047065
0.0439004
0.0405173
0.0369799
0.0333543
0.0297036
0.0260855
0.02255
0.0191382
0.0158822
0.0128056
0.00992401
0.00724636
0.00477569
0.00251016
0.000445963
-0.00142054
-0.00309694
-0.00459346
-0.00591788
-0.00708137
-0.00809192
-0.00895781
-0.00968607
-0.0102831
-0.0107543
-0.011104
-0.0113352
-0.0114504
0.0501508
0.0502118
0.0503337
0.0505171
0.0507622
0.0510694
0.051439
0.0518714
0.0523664
0.0529235
0.0535414
0.0542178
0.0549492
0.0557303
0.0565524
0.0574045
0.0582717
0.0591345
0.0599683
0.0607411
0.0614124
0.0619398
0.0622747
0.0623603
0.0621405
0.0615616
0.0605768
0.0591515
0.0572663
0.0549219
0.0521431
0.0489773
0.045485
0.0417401
0.0378237
0.0338177
0.0297996
0.0258381
0.0219912
0.0183049
0.0148135
0.0115404
0.00849949
0.00569621
0.003129
0.000793612
-0.00131568
-0.00320729
-0.00489598
-0.00639398
-0.00771123
-0.00886197
-0.00985618
-0.0107041
-0.0114144
-0.0119946
-0.0124513
-0.0127893
-0.0130125
-0.0131236
0.049708
0.0497743
0.0499072
0.0501073
0.0503754
0.0507124
0.0511197
0.0515983
0.0521493
0.0527736
0.0534715
0.0542422
0.0550838
0.0559932
0.0569635
0.0579849
0.0590435
0.0601206
0.0611902
0.0622183
0.0631588
0.0639622
0.0645697
0.0649102
0.0649121
0.064504
0.063622
0.0622171
0.0602602
0.0577481
0.0547104
0.0512066
0.0473143
0.0431289
0.0387538
0.034292
0.0298389
0.0254769
0.021273
0.0172779
0.0135274
0.0100435
0.00683638
0.00390661
0.00124699
-0.00114973
-0.00329252
-0.00519917
-0.00688884
-0.00837577
-0.00967418
-0.0108012
-0.0117692
-0.0125904
-0.013275
-0.0138321
-0.0142691
-0.0145918
-0.0148044
-0.0149101
0.0491987
0.0492702
0.0494134
0.0496294
0.0499194
0.0502853
0.0507289
0.0512527
0.0518591
0.0525505
0.053329
0.054196
0.055152
0.0561961
0.0573244
0.0585292
0.0597988
0.0611163
0.0624553
0.0637812
0.0650428
0.0661817
0.0671273
0.0677926
0.0680847
0.0679082
0.0671754
0.0658166
0.0637881
0.061081
0.05773
0.0538112
0.0494264
0.0447002
0.0397664
0.0347561
0.0297874
0.0249588
0.0203472
0.0160075
0.0119755
0.00826927
0.00489307
0.00184046
-0.000900843
-0.00334339
-0.00550512
-0.00741241
-0.00908731
-0.0105472
-0.0118123
-0.0129024
-0.0138322
-0.0146161
-0.0152661
-0.0157927
-0.0162041
-0.0165069
-0.0167059
-0.0168048
0.0486177
0.0486938
0.0488465
0.0490771
0.0493875
0.0497801
0.0502579
0.0508245
0.0514839
0.0522404
0.0530981
0.0540612
0.0551331
0.0563158
0.0576096
0.0590101
0.0605091
0.062093
0.0637367
0.0654064
0.0670483
0.0685948
0.069961
0.0710417
0.0717149
0.0718534
0.0713357
0.0700623
0.0679672
0.0650321
0.0612982
0.0568643
0.0518665
0.0464699
0.0408507
0.0351772
0.0295963
0.0242254
0.019151
0.0144309
0.0100977
0.00616259
0.00261944
-0.000545147
-0.00334901
-0.0058154
-0.00797603
-0.00986309
-0.0115021
-0.0129158
-0.0141301
-0.0151672
-0.0160447
-0.0167791
-0.0173842
-0.0178717
-0.0182507
-0.0185287
-0.0187109
-0.0188013
0.0479603
0.0480405
0.0482014
0.0484447
0.0487729
0.0491892
0.0496977
0.0503033
0.0510115
0.0518288
0.0527619
0.0538179
0.0550037
0.0563257
0.0577887
0.0593938
0.0611379
0.0630125
0.0649968
0.0670602
0.0691491
0.071188
0.0730778
0.0746904
0.0758665
0.0764348
0.0762262
0.0750972
0.0729487
0.0697462
0.0655389
0.0604576
0.054687
0.0484511
0.0419843
0.0355052
0.029197
0.0231979
0.0176027
0.0124683
0.00781998
0.00365741
-3.93072e-05
-0.00329344
-0.00613146
-0.00859562
-0.0107286
-0.0125677
-0.0141441
-0.0154881
-0.0166303
-0.0175956
-0.0184042
-0.0190752
-0.0196237
-0.0200626
-0.0204018
-0.0206495
-0.0208113
-0.0208914
0.0472223
0.0473057
0.0474732
0.0477268
0.0480696
0.0485056
0.0490399
0.0496788
0.0504296
0.0513009
0.0523024
0.0534445
0.0547384
0.0561953
0.0578264
0.0596395
0.0616393
0.0638252
0.0661842
0.0686922
0.0713016
0.0739321
0.0764723
0.0787663
0.0806105
0.0817693
0.0820049
0.0811103
0.0789346
0.0754175
0.0706165
0.0647084
0.0579493
0.0506489
0.0431235
0.0356607
0.0284913
0.0217697
0.0155953
0.0100178
0.00504968
0.000673756
-0.00314703
-0.00645236
-0.00928836
-0.0117149
-0.013784
-0.0155402
-0.0170219
-0.0182682
-0.0193133
-0.0201849
-0.0209063
-0.0214982
-0.0219772
-0.0223569
-0.0226483
-0.0228596
-0.0229971
-0.0230649
0.0464004
0.046486
0.0466581
0.046919
0.0472724
0.0477229
0.0482767
0.0489414
0.0497263
0.0506421
0.0517015
0.0529187
0.0543096
0.0558913
0.0576822
0.0596991
0.0619575
0.0644673
0.0672289
0.0702298
0.073434
0.0767676
0.0801116
0.0832832
0.0860209
0.0879911
0.0888651
0.0883398
0.086185
0.0822967
0.0767407
0.0697604
0.0617192
0.0530531
0.0441973
0.0355303
0.0273422
0.0197983
0.0129888
0.00695186
0.00167594
-0.00287978
-0.0067756
-0.0100784
-0.0128629
-0.0152033
-0.0171615
-0.0187911
-0.0201408
-0.0212568
-0.0221761
-0.0229297
-0.0235433
-0.024039
-0.0244344
-0.0247438
-0.0249787
-0.0251474
-0.0252564
-0.02531
0.0454921
0.0455788
0.0457532
0.0460179
0.0463769
0.0468357
0.0474014
0.0480828
0.0488908
0.0498385
0.0509415
0.0522179
0.0536887
0.0553777
0.0573115
0.0595176
0.0620255
0.0648597
0.0680402
0.0715735
0.0754448
0.0796005
0.0839277
0.0882232
0.0921727
0.0952752
0.0970731
0.0971282
0.0950836
0.0907584
0.0842237
0.075822
0.0660815
0.0556297
0.0450756
0.034914
0.0255595
0.017089
0.00960511
0.00311779
-0.00242286
-0.00709731
-0.0109978
-0.0142302
-0.0168964
-0.019087
-0.0208761
-0.0223278
-0.0235023
-0.0244503
-0.0252119
-0.0258206
-0.0263041
-0.0266854
-0.0269824
-0.0272099
-0.0273792
-0.0274989
-0.0275752
-0.0276125
0.0444965
0.044583
0.044757
0.0450214
0.0453805
0.0458404
0.0464089
0.0470959
0.0479138
0.0488777
0.050006
0.0513206
0.0528477
0.0546177
0.0566668
0.0590345
0.0617668
0.0649081
0.0685037
0.0725898
0.0771852
0.082277
0.0877801
0.0935227
0.099156
0.103783
0.106902
0.10784
0.106046
0.101205
0.093385
0.0830781
0.0710686
0.0582713
0.0455715
0.0335654
0.0228809
0.0133993
0.0052156
-0.00167678
-0.00739745
-0.01209
-0.0158967
-0.0189663
-0.0214265
-0.0233866
-0.024936
-0.0261514
-0.0271012
-0.0278393
-0.0284083
-0.0288436
-0.0291737
-0.0294215
-0.0296051
-0.0297388
-0.0298335
-0.0298977
-0.0299373
-0.0299561
0.0434135
0.0434983
0.0436691
0.0439288
0.0442819
0.0447349
0.045296
0.0459761
0.0467886
0.0477501
0.0488814
0.0502078
0.0517602
0.0535757
0.0556999
0.0581856
0.0610965
0.0645027
0.0684803
0.0731069
0.0784493
0.0845599
0.0914381
0.0988848
0.102838
0.109588
0.114804
0.117683
0.117382
0.113267
0.105209
0.0937343
0.0798424
0.0647791
0.0497583
0.0356863
0.0190502
0.00836872
-0.000462241
-0.00766165
-0.0134205
-0.0179813
-0.0215563
-0.0243379
-0.0264805
-0.0281129
-0.0293413
-0.0302544
-0.0309247
-0.0314076
-0.0317474
-0.0319796
-0.0321324
-0.0322278
-0.032283
-0.0323113
-0.0323228
-0.0323253
-0.0323241
-0.0323226
0.0422448
0.0423265
0.042491
0.0427412
0.0430818
0.0435193
0.0440621
0.0447215
0.0455113
0.0464494
0.0475579
0.0488646
0.0504042
0.0522198
0.0543653
0.0569067
0.0599255
0.063521
0.0678065
0.0729132
0.0789718
0.086109
0.0944671
0.100269
0.109976
0.119545
0.127817
0.133271
0.134483
0.130319
0.120452
0.105675
0.0876313
0.0683343
0.0496273
0.0329055
0.018625
0.00162557
-0.00782371
-0.0151038
-0.0206697
-0.0248917
-0.0280483
-0.0303797
-0.0320685
-0.0332608
-0.0340789
-0.0346175
-0.0349495
-0.0351304
-0.0352037
-0.0352035
-0.0351557
-0.0350805
-0.034993
-0.0349052
-0.0348256
-0.0347607
-0.034715
-0.0346914
0.0409932
0.0410703
0.0412255
0.0414616
0.041783
0.0421962
0.0427093
0.0433333
0.0440823
0.044974
0.0460312
0.0472826
0.0487654
0.0505262
0.0526256
0.0551407
0.0581696
0.0618382
0.0663033
0.0717592
0.0784314
0.0865266
0.0965349
0.10408
0.116502
0.126801
0.139228
0.148667
0.153106
0.150461
0.139726
0.121826
0.0992011
0.0749205
0.0516992
0.0283273
0.0111166
-0.00762376
-0.0173614
-0.024286
-0.0293263
-0.0329232
-0.0354204
-0.0371031
-0.0381781
-0.0388071
-0.0391187
-0.0392065
-0.0391406
-0.0389732
-0.0387442
-0.0384836
-0.0382138
-0.0379514
-0.0377088
-0.0374955
-0.0373177
-0.0371807
-0.0370875
-0.0370402
0.0396634
0.0397345
0.0398773
0.0400946
0.0403904
0.0407705
0.0412426
0.0418169
0.0425064
0.0433282
0.044304
0.045462
0.0468391
0.048483
0.0504571
0.0528447
0.0557567
0.0593413
0.0637915
0.069367
0.0764192
0.085222
0.0966688
0.106458
0.122248
0.136511
0.155085
0.171117
0.180966
0.180446
0.167249
0.142777
0.111565
0.078966
0.0490876
0.0201103
0.000782974
-0.0203513
-0.0294443
-0.0354605
-0.0395317
-0.0421311
-0.043675
-0.0444802
-0.0447673
-0.044703
-0.0444091
-0.0439705
-0.0434495
-0.0428909
-0.0423272
-0.0417819
-0.0412716
-0.0408085
-0.0404006
-0.0400542
-0.0397731
-0.0395602
-0.0394172
-0.0393453
0.0382614
0.038325
0.0384528
0.038647
0.0389111
0.0392501
0.0396705
0.0401813
0.0407937
0.0415227
0.0423876
0.0434136
0.0446347
0.0460957
0.0478572
0.0500019
0.0526442
0.0559443
0.0601184
0.0654711
0.0724963
0.0815557
0.0940078
0.106197
0.125635
0.145315
0.172395
0.198896
0.218534
0.222657
0.205627
0.169929
0.124765
0.0798842
0.0413169
0.00583612
-0.0151024
-0.0370514
-0.0444773
-0.0488402
-0.0513445
-0.0524902
-0.0527451
-0.0524285
-0.0517528
-0.050867
-0.0498732
-0.0488395
-0.0478136
-0.0468275
-0.0459028
-0.0450538
-0.0442895
-0.0436158
-0.0430358
-0.0425515
-0.0421637
-0.0418727
-0.0416786
-0.0415814
0.0367943
0.0368493
0.0369597
0.0371271
0.0373543
0.0376451
0.0380047
0.0384399
0.0389595
0.0395752
0.0403021
0.0411604
0.0421776
0.0433907
0.0448516
0.0466326
0.0488368
0.0516195
0.0552008
0.0598817
0.0662728
0.0747978
0.087279
0.101555
0.124008
0.15028
0.188794
0.232414
0.270808
0.285603
0.26202
0.205116
0.135903
0.0728175
0.0241454
-0.0172477
-0.0377207
-0.05839
-0.0627471
-0.0644639
-0.0646713
-0.0638569
-0.0624773
-0.0608041
-0.0590024
-0.0571807
-0.0554076
-0.053724
-0.0521557
-0.0507165
-0.0494134
-0.0482492
-0.0472234
-0.0463344
-0.0455794
-0.0449556
-0.0444601
-0.0440907
-0.0438453
-0.0437227
0.0352707
0.0353163
0.0354074
0.0355451
0.0357313
0.0359684
0.0362598
0.0366098
0.0370241
0.03751
0.0380771
0.0387381
0.0395108
0.0404196
0.0415001
0.0428039
0.0444061
0.0464287
0.0490658
0.0525529
0.0575278
0.0643533
0.0751649
0.090263
0.113325
0.145659
0.197403
0.267845
0.344182
0.386023
0.349967
0.248469
0.136327
0.0488567
-0.00895669
-0.05259
-0.0685783
-0.0846406
-0.0841268
-0.0820437
-0.0791928
-0.0759359
-0.0726166
-0.0693884
-0.0663307
-0.0634891
-0.0608832
-0.0585166
-0.0563859
-0.0544822
-0.0527952
-0.0513137
-0.0500264
-0.0489234
-0.0479951
-0.0472338
-0.0466327
-0.0461863
-0.0458908
-0.0457434
0.0337001
0.0337356
0.0338062
0.0339122
0.0340546
0.0342344
0.0344528
0.0347114
0.0350122
0.0353576
0.0357503
0.036194
0.0366943
0.0372585
0.0378991
0.0386369
0.0395022
0.0405528
0.041913
0.0436786
0.0463956
0.0501406
0.0569824
0.0703786
0.0889429
0.122665
0.183144
0.288476
0.442388
0.561825
0.497115
0.288358
0.101527
-0.00975065
-0.0668537
-0.102803
-0.108213
-0.11508
-0.107814
-0.100863
-0.0943207
-0.0882614
-0.0827914
-0.0778842
-0.0735008
-0.0696033
-0.0661489
-0.0630953
-0.0604047
-0.0580431
-0.0559802
-0.0541901
-0.05265
-0.0513409
-0.0502465
-0.0493538
-0.0486517
-0.0481322
-0.0477889
-0.047618
0.0320927
0.0321177
0.0321671
0.0322406
0.032338
0.0324588
0.0326022
0.0327671
0.0329514
0.0331523
0.0333654
0.0335848
0.0338018
0.0340048
0.0341783
0.0343047
0.0343579
0.034305
0.0341597
0.0337965
0.0335493
0.0329686
0.0335062
0.0414761
0.0477258
0.0715786
0.118862
0.24064
0.52819
0.907945
0.753819
0.249359
-0.0321282
-0.129456
-0.156226
-0.167394
-0.154777
-0.147483
-0.132168
-0.119738
-0.109189
-0.100195
-0.092524
-0.0859307
-0.0802379
-0.0753117
-0.0710395
-0.0673295
-0.0641083
-0.061315
-0.0588997
-0.0568215
-0.0550462
-0.053546
-0.0522979
-0.0512839
-0.0504889
-0.0499021
-0.0495149
-0.0493224
0.0304588
0.0304734
0.0305017
0.0305428
0.0305955
0.0306579
0.0307274
0.0308
0.0308703
0.0309304
0.0309692
0.0309712
0.0309148
0.0307688
0.0304897
0.030019
0.0292716
0.0281136
0.0264276
0.023812
0.0203025
0.014776
0.00770732
0.00666853
-0.00680556
-0.00936636
-0.0190421
0.00632232
0.239142
1.48195
1.10502
-0.276558
-0.381763
-0.32366
-0.271334
-0.237996
-0.202387
-0.178098
-0.154781
-0.137067
-0.122709
-0.110981
-0.101274
-0.0931353
-0.0862523
-0.0803967
-0.0753885
-0.0710901
-0.0673946
-0.0642165
-0.0614877
-0.0591535
-0.0571696
-0.0555001
-0.0541162
-0.052995
-0.052118
-0.0514717
-0.0510459
-0.0508343
0.0288089
0.0288135
0.0288213
0.0288311
0.0288409
0.0288475
0.0288468
0.0288327
0.0287966
0.0287267
0.0286066
0.0284128
0.028113
0.0276607
0.0269882
0.0260022
0.0245677
0.0224612
0.0194532
0.0148731
0.00847124
-0.00150677
-0.015475
-0.0269721
-0.0612969
-0.0984925
-0.19132
-0.378528
-0.90896
-2.51838
-0.877806
-0.525554
-0.377232
-0.297521
-0.242202
-0.202451
-0.172917
-0.151121
-0.133749
-0.119857
-0.10851
-0.0991218
-0.091271
-0.0846556
-0.0790428
-0.0742592
-0.0701712
-0.0666739
-0.0636846
-0.0611375
-0.0589798
-0.0571693
-0.0556719
-0.0544612
-0.0535157
-0.0528197
-0.0523616
-0.0521341
0.0271532
0.0271483
0.0271369
0.0271175
0.0270872
0.0270424
0.0269776
0.0268851
0.0267547
0.0265717
0.0263164
0.0259605
0.0254651
0.0247746
0.0238075
0.0224486
0.020535
0.0177877
0.013925
0.0080899
-0.000115946
-0.0128284
-0.0307741
-0.0507758
-0.0982758
-0.160069
-0.298563
-0.560292
-1.05317
-1.55697
-1.45766
-0.912278
-0.594541
-0.428757
-0.32921
-0.265841
-0.216888
-0.184333
-0.160488
-0.141386
-0.126199
-0.113799
-0.103583
-0.0950698
-0.0879212
-0.0818751
-0.0767384
-0.0723611
-0.0686259
-0.0654409
-0.0627327
-0.0604428
-0.0585245
-0.0569402
-0.0556606
-0.0546624
-0.0539281
-0.0534451
-0.0532052
0.0255013
0.0254877
0.0254587
0.0254125
0.0253462
0.0252554
0.025134
0.024974
0.0247641
0.0244888
0.0241274
0.0236505
0.0230181
0.0221739
0.0210354
0.0194845
0.0173612
0.0143781
0.0102893
0.00418339
-0.0042734
-0.0172685
-0.0350265
-0.059125
-0.108004
-0.175011
-0.30496
-0.502246
-0.892997
-1.32819
-0.952984
-0.950189
-0.723337
-0.541235
-0.417956
-0.328583
-0.270279
-0.220243
-0.188171
-0.164551
-0.145169
-0.129674
-0.116893
-0.106335
-0.0975087
-0.0900853
-0.0838008
-0.0784605
-0.0739104
-0.070029
-0.0667209
-0.0639095
-0.0615336
-0.0595444
-0.0579026
-0.056577
-0.0555433
-0.0547833
-0.0542833
-0.0540351
0.0238619
0.0238405
0.0237958
0.0237259
0.0236278
0.023497
0.0233276
0.0231116
0.022838
0.0224925
0.0220555
0.0215006
0.0207918
0.0198807
0.0186973
0.0171406
0.0150842
0.0122799
0.00860582
0.00323442
-0.0038968
-0.0147881
-0.0283388
-0.0516436
-0.0921203
-0.147919
-0.242462
-0.360568
-0.388734
-0.731304
-1.23116
-0.736733
-0.544022
-0.440887
-0.36797
-0.303734
-0.258668
-0.214112
-0.185204
-0.163649
-0.145223
-0.130311
-0.11778
-0.107349
-0.0985511
-0.0911115
-0.0847864
-0.0793961
-0.0747931
-0.0708605
-0.0675048
-0.0646508
-0.0622375
-0.0602162
-0.0585474
-0.0571998
-0.0561488
-0.055376
-0.0548677
-0.0546153
0.022243
0.0222146
0.0221561
0.0220655
0.02194
0.0217754
0.0215663
0.0213055
0.0209834
0.020588
0.0201034
0.0195088
0.0187771
0.017874
0.0167526
0.0153451
0.0135827
0.0112898
0.00852894
0.00466425
5.818e-05
-0.00700843
-0.0134682
-0.0319033
-0.0584175
-0.0984261
-0.16281
-0.241961
-0.325636
-0.457821
-0.484398
-0.343708
-0.338806
-0.325677
-0.301897
-0.266973
-0.23723
-0.20165
-0.177228
-0.158774
-0.142108
-0.128425
-0.116639
-0.106724
-0.0982503
-0.0910276
-0.0848451
-0.0795496
-0.0750088
-0.0711172
-0.0677883
-0.0649516
-0.0625492
-0.0605346
-0.0588696
-0.0575242
-0.0564743
-0.055702
-0.0551938
-0.0549415
0.0206515
0.020617
0.0205465
0.0204381
0.0202893
0.0200964
0.019855
0.0195591
0.0192013
0.0187726
0.0182622
0.0176568
0.0169405
0.0160965
0.0151066
0.0139438
0.0126094
0.0110134
0.009414
0.00741531
0.00588867
0.00337946
0.00512461
-0.00564049
-0.0158073
-0.0377526
-0.0778723
-0.132318
-0.254512
-0.380911
0.0415557
-0.0303726
-0.175639
-0.226175
-0.238699
-0.22922
-0.212327
-0.186167
-0.166278
-0.151164
-0.136594
-0.1245
-0.113777
-0.104655
-0.0967309
-0.0899148
-0.0840296
-0.0789557
-0.0745808
-0.0708149
-0.067582
-0.0648189
-0.0624734
-0.0605027
-0.0588714
-0.0575516
-0.0565206
-0.0557616
-0.055262
-0.0550138
0.0190933
0.0190536
0.0189726
0.018849
0.0186804
0.018464
0.0181962
0.0178727
0.0174883
0.0170377
0.0165151
0.0159152
0.0152333
0.014469
0.0136337
0.0127408
0.011856
0.0109636
0.0104869
0.0102406
0.0115723
0.0132082
0.0220981
0.0201363
0.0260314
0.0274621
0.00499138
-0.0168609
-0.0587697
-0.0940298
0.0904355
0.0102697
-0.106998
-0.164864
-0.190888
-0.197011
-0.188372
-0.16998
-0.15394
-0.141887
-0.129418
-0.119038
-0.109538
-0.101378
-0.0941574
-0.0878889
-0.082422
-0.0776733
-0.0735516
-0.0699849
-0.0669093
-0.0642708
-0.062024
-0.0601313
-0.0585613
-0.0572889
-0.0562936
-0.0555601
-0.0550769
-0.0548369
0.0175737
0.0175294
0.0174394
0.0173026
0.017117
0.0168806
0.0165907
0.0162445
0.015839
0.0153719
0.0148419
0.0142507
0.0136026
0.0129111
0.0122109
0.0115448
0.0110236
0.010676
0.0110245
0.0119992
0.0152413
0.0195344
0.0324217
0.037967
0.0552907
0.0806403
0.0875489
0.0921492
-0.00709498
-0.0335095
-0.0503231
-0.0647218
-0.0976631
-0.133942
-0.158438
-0.171816
-0.167087
-0.15425
-0.141137
-0.131694
-0.121177
-0.112489
-0.104256
-0.097133
-0.090708
-0.0850827
-0.0801216
-0.0757773
-0.0719784
-0.0686713
-0.0658044
-0.063334
-0.0612225
-0.059438
-0.0579539
-0.0567485
-0.0558041
-0.0551071
-0.0546475
-0.0544191
0.0160972
0.0160488
0.0159509
0.0158025
0.015602
0.0153481
0.0150388
0.0146723
0.0142476
0.0137641
0.0132234
0.012633
0.0120042
0.0113581
0.0107393
0.0102033
0.00988184
0.00981202
0.0105318
0.0119546
0.0157326
0.0205481
0.0332533
0.042479
0.0612888
0.0947201
0.101163
0.0265126
-0.0671772
-0.102685
-0.134559
-0.0957824
-0.0958099
-0.114553
-0.135456
-0.151626
-0.148347
-0.139088
-0.128302
-0.121027
-0.112271
-0.105189
-0.0982052
-0.0921376
-0.0865523
-0.0816293
-0.0772339
-0.0733511
-0.0699274
-0.0669267
-0.0643096
-0.0620428
-0.0600968
-0.058446
-0.0570689
-0.0559474
-0.0550669
-0.0544161
-0.0539864
-0.0537728
0.0146675
0.0146156
0.0145106
0.0143518
0.014138
0.013868
0.0135406
0.0131546
0.0127096
0.0122062
0.0116475
0.0110445
0.0104109
0.00976736
0.00915667
0.00863285
0.00832264
0.0082363
0.00885379
0.00997054
0.0129907
0.0164404
0.0256056
0.0339461
0.0444331
0.0631164
0.0252781
-0.0141254
-0.0755661
-0.0973191
-0.101649
-0.0802713
-0.0811926
-0.0966917
-0.116416
-0.133704
-0.131252
-0.124285
-0.1155
-0.110091
-0.102965
-0.0973729
-0.091597
-0.0865834
-0.0818545
-0.0776615
-0.0738647
-0.0704813
-0.0674692
-0.0648089
-0.0624724
-0.0604367
-0.05868
-0.0571833
-0.05593
-0.0549063
-0.0541007
-0.0535041
-0.0531096
-0.0529133
0.0132883
0.0132331
0.0131217
0.0129535
0.0127274
0.0124424
0.0120972
0.011691
0.0112234
0.0106954
0.0101111
0.0094798
0.00881249
0.00812537
0.00745174
0.0068326
0.00636802
0.00601981
0.00617003
0.006472
0.00794752
0.00908528
0.0133809
0.0184821
0.0190512
0.0203871
-0.0146594
0.0185468
-0.0209271
-0.0366338
-0.0490674
-0.0518689
-0.0624007
-0.0792513
-0.0988032
-0.116302
-0.114888
-0.109665
-0.102755
-0.099004
-0.0934358
-0.089229
-0.0846067
-0.0806274
-0.0767579
-0.0733038
-0.070118
-0.0672536
-0.0646761
-0.0623785
-0.0603437
-0.0585584
-0.0570084
-0.055681
-0.0545645
-0.0536493
-0.0529269
-0.0523908
-0.0520357
-0.051859
0.0119626
0.0119045
0.0117874
0.0116106
0.011373
0.0110735
0.0107103
0.0102829
0.00979097
0.00923479
0.00861676
0.00794167
0.00721594
0.00644905
0.00565916
0.00486821
0.00413845
0.00338172
0.00287658
0.00218897
0.00193577
0.000801214
0.000647564
0.00261632
-0.00271459
-0.0104251
-0.0201738
0.0182333
0.00330339
-0.00153626
-0.0163539
-0.0295494
-0.0455568
-0.0632958
-0.0822242
-0.098914
-0.098845
-0.0951913
-0.0901569
-0.0879045
-0.0838275
-0.0809158
-0.077398
-0.0744089
-0.0713818
-0.0686625
-0.0660923
-0.0637529
-0.0616191
-0.0596964
-0.0579754
-0.0564524
-0.0551203
-0.0539721
-0.0530015
-0.0522023
-0.0515693
-0.0510982
-0.0507856
-0.0506298
0.0106934
0.0106327
0.0105104
0.0103257
0.0100775
0.00976406
0.00938342
0.0089353
0.0084184
0.00783122
0.0071728
0.00644353
0.00564467
0.00477737
0.00384218
0.00284307
0.00180427
0.000601264
-0.000579274
-0.00216201
-0.00390841
-0.00670444
-0.0101585
-0.0102924
-0.0177382
-0.0284873
-0.0213109
-0.00379075
-0.00558517
0.0055484
-0.00247147
-0.0174088
-0.0324179
-0.0492986
-0.0666959
-0.0816227
-0.0830765
-0.0809577
-0.0778351
-0.0769466
-0.0742878
-0.0725772
-0.0701234
-0.0680799
-0.0658592
-0.0638464
-0.0618782
-0.0600606
-0.0583683
-0.0568221
-0.0554194
-0.0541638
-0.0530549
-0.0520915
-0.0512715
-0.0505927
-0.0500528
-0.0496496
-0.0493814
-0.0492476
0.00948327
0.00942027
0.00929343
0.00910182
0.00884387
0.00851784
0.00812182
0.00765458
0.0071129
0.00649345
0.00579244
0.00500641
0.00413064
0.00315865
0.00207421
0.000869269
-0.00046435
-0.00206641
-0.00382862
-0.00606984
-0.00890239
-0.0126164
-0.0182083
-0.0195027
-0.0271343
-0.0382485
-0.0244441
-0.0210508
-0.0199868
0.000529083
-0.000717615
-0.00940683
-0.0227101
-0.0374624
-0.0521016
-0.0647453
-0.0677439
-0.0671301
-0.0659239
-0.0662797
-0.0649629
-0.0643505
-0.0629056
-0.0617557
-0.0603033
-0.058961
-0.057567
-0.0562529
-0.0549918
-0.0538142
-0.052726
-0.0517369
-0.0508514
-0.0500736
-0.0494057
-0.0488488
-0.0484033
-0.0480692
-0.0478463
-0.047735
0.00833445
0.00826956
0.00813896
0.00794146
0.00767536
0.00733912
0.00693026
0.0064459
0.00588141
0.00523209
0.00449178
0.00365349
0.00270676
0.00164026
0.000423625
-0.000955771
-0.0025317
-0.00443385
-0.00663031
-0.00926471
-0.0127876
-0.016797