/*--------------------------------*- C++ -*----------------------------------*\
  =========                 |
  \\      /  F ield         | OpenFOAM: The Open Source CFD Toolbox
   \\    /   O peration     | Website:  https://openfoam.org
    \\  /    A nd           | Version:  12
     \\/     M anipulation  |
\*---------------------------------------------------------------------------*/
FoamFile
{
    format      ascii;
    class       surfaceScalarField;
    location    "100";
    object      phi;
}
// * * * * * * * * * * * * * * * * * * * * * * * * * * * * * * * * * * * * * //

dimensions      [0 3 -1 0 0 0 0];

internalField   nonuniform List<scalar> 
32440
(
-1.28801e-07
0.0399881
1.74361e-06
0.0399881
-3.80947e-07
0.0399901
1.49919e-06
0.0399881
-6.1431e-07
0.0399901
1.28026e-06
0.0399981
1.18471e-06
0.0400101
1.10102e-06
0.0400101
3.0313e-06
0.0400101
4.97762e-06
0.0400101
6.94197e-06
0.04001
2.92642e-06
0.040004
2.9334e-06
0.04
2.96478e-06
0.04
3.02254e-06
0.0399999
3.10841e-06
0.0399999
3.22383e-06
0.0399999
3.36979e-06
0.0399999
3.5468e-06
0.0399998
3.7548e-06
0.0399998
3.993e-06
0.0399998
4.25998e-06
0.0399997
4.55329e-06
0.0399997
4.86975e-06
0.0399997
5.20538e-06
0.0399997
5.55541e-06
0.0399996
5.91452e-06
0.0399996
6.27625e-06
0.0399996
5.03531e-06
0.0400012
-2.75719e-07
0.0400053
-1.48006e-06
0.0400012
-1.36734e-06
0.0399999
-1.08143e-06
0.0399997
-8.27024e-07
0.0399997
3.91985e-07
0.0399988
5.72711e-07
0.0399998
7.1287e-07
0.0399999
8.11458e-07
0.0399999
8.68093e-07
0.0399999
8.83316e-07
0.04
8.58341e-07
0.04
7.94968e-07
0.0400001
6.95436e-07
0.0400001
5.62403e-07
0.0400001
3.9852e-07
0.0400002
2.06844e-07
0.0400002
-9.68492e-09
0.0400002
-2.4765e-07
0.0400002
-5.05323e-07
0.0400003
-7.79427e-07
0.0400003
-1.06769e-06
0.0400003
-3.3678e-06
0.0400023
-9.67694e-06
0.0400063
-3.99498e-06
0.0400063
-3.20177e-07
0.0400083
-6.50601e-07
0.0400103
1.01541e-06
0.0399983
6.78743e-07
0.0399883
3.40387e-07
0.0399903
0.0399883
-2.43954e-07
0.0399884
-4.82538e-07
0.0399884
-7.07784e-07
0.0399903
-9.12828e-07
0.0399883
9.0929e-07
0.0399883
2.76566e-06
0.0399962
4.66361e-06
0.0400082
4.61064e-06
0.0400101
6.61432e-06
0.0400081
1.06823e-05
0.040006
1.4822e-05
0.0400059
7.04032e-06
0.0400118
3.34524e-06
0.0400037
3.74285e-06
0.0399996
4.23879e-06
0.0399994
4.8376e-06
0.0399993
5.54239e-06
0.0399992
6.35452e-06
0.039999
7.27313e-06
0.0399989
8.29519e-06
0.0399988
9.41438e-06
0.0399986
1.06229e-05
0.0399985
1.19083e-05
0.0399984
1.32561e-05
0.0399983
1.46487e-05
0.0399983
1.62661e-05
0.039998
1.76863e-05
0.0399982
1.86864e-05
0.0399986
1.86418e-05
0.0400013
1.4223e-05
0.0400097
1.39257e-05
0.0400015
1.50099e-05
0.0399988
1.5963e-05
0.0399988
1.67696e-05
0.0399989
1.62173e-05
0.0399993
1.66995e-05
0.0399993
1.7008e-05
0.0399996
1.71436e-05
0.0399998
1.71079e-05
0.04
1.69064e-05
0.0400002
1.65466e-05
0.0400004
1.60383e-05
0.0400006
1.53925e-05
0.0400007
1.4623e-05
0.0400009
1.57394e-05
0.039999
1.47558e-05
0.0400012
1.36851e-05
0.0400013
1.25383e-05
0.0400014
1.13279e-05
0.0400015
1.00648e-05
0.0400015
6.75572e-06
0.0400036
1.41205e-06
0.0400076
-1.96016e-06
0.0400097
-1.35861e-06
0.0400057
-7.7565e-07
0.0400077
-2.06169e-07
0.0400098
4.35374e-06
0.0399938
9.06763e-07
0.0399918
1.45541e-06
0.0399898
0.0399898
-2.35804e-07
0.0399886
-4.60932e-07
0.0399886
1.3392e-06
0.0399885
1.17737e-06
0.0399885
-9.33433e-07
0.0399904
5.02003e-06
0.0399903
5.05105e-06
0.0400082
7.17326e-06
0.040008
9.40023e-06
0.0400058
1.17454e-05
0.0400036
1.4222e-05
0.0400034
6.84167e-06
0.0400192
5.61811e-06
0.0400049
6.56169e-06
0.0399986
7.68077e-06
0.0399983
8.9826e-06
0.039998
1.0471e-05
0.0399977
1.21467e-05
0.0399974
1.80058e-05
0.039993
1.60408e-05
0.0400007
1.82389e-05
0.0399964
2.05826e-05
0.0399962
2.30481e-05
0.039996
2.56066e-05
0.0399958
2.82247e-05
0.0399957
3.08643e-05
0.0399954
3.34846e-05
0.0399956
3.604e-05
0.0399961
3.68905e-05
0.0400004
3.35048e-05
0.0400131
3.41027e-05
0.0400009
3.57822e-05
0.0399971
3.74e-05
0.0399971
3.87295e-05
0.0399976
4.07509e-05
0.0399973
4.1449e-05
0.0399986
4.18214e-05
0.0399992
4.18698e-05
0.0399997
4.15952e-05
0.0400003
4.10128e-05
0.0400008
4.01393e-05
0.0400013
3.89947e-05
0.0400017
3.76041e-05
0.0400021
3.59848e-05
0.0400025
3.21674e-05
0.0400029
3.01748e-05
0.0400032
2.80331e-05
0.0400034
2.77604e-05
0.0400017
2.53795e-05
0.0400038
2.09097e-05
0.040006
1.63682e-05
0.0400081
3.77651e-06
0.0400202
7.12976e-06
0.0400063
6.44654e-06
0.0400064
5.73736e-06
0.0400085
7.00893e-06
0.0400085
8.26797e-06
0.0399925
5.51755e-06
0.0399945
2.76148e-06
0.0399925
0.0399926
-2.03258e-07
0.0399888
-3.90376e-07
0.0399888
-5.4008e-07
0.0399887
-6.33449e-07
0.0399886
1.34869e-06
0.0399884
1.42564e-06
0.0399902
7.6172e-06
0.040002
9.94309e-06
0.0400057
1.24231e-05
0.0400034
1.30771e-05
0.040003
1.39237e-05
0.0400026
1.09804e-05
0.0400221
8.26643e-06
0.0400076
7.79604e-06
0.0399991
9.58268e-06
0.0399965
1.3634e-05
0.039994
1.79565e-05
0.0399934
3.05508e-05
0.0399848
3.94117e-05
0.0399842
3.05184e-05
0.0400096
2.78624e-05
0.0399991
3.14107e-05
0.0399926
3.51286e-05
0.0399922
3.89701e-05
0.0399919
4.28881e-05
0.0399917
4.68236e-05
0.0399915
5.07146e-05
0.0399917
5.42983e-05
0.0399925
5.65019e-05
0.0399982
5.41888e-05
0.0400154
5.5736e-05
0.0399994
5.82474e-05
0.0399946
6.07509e-05
0.0399946
6.26121e-05
0.0399957
6.28026e-05
0.0399971
6.37052e-05
0.0399977
6.41132e-05
0.0399988
6.40311e-05
0.0399998
6.54695e-05
0.0399988
6.44496e-05
0.0400018
6.29985e-05
0.0400027
6.11524e-05
0.0400036
5.89359e-05
0.0400044
5.63962e-05
0.0400051
5.35715e-05
0.0400057
5.04925e-05
0.0400062
4.71966e-05
0.0400067
4.17243e-05
0.0400071
4.00996e-05
0.0400055
3.63527e-05
0.0400098
2.25122e-05
0.040022
1.85987e-05
0.0400241
1.46143e-05
0.0400103
1.25849e-05
0.0400084
1.05242e-05
0.0400105
1.44427e-05
0.0400046
1.03443e-05
0.0399966
8.23594e-06
0.0399966
4.12116e-06
0.0399967
0.0399967
-1.7276e-07
0.039989
-3.238e-07
0.0399889
-4.25211e-07
0.0399888
-4.51932e-07
0.0399886
-3.78642e-07
0.0399883
1.82034e-06
0.039988
1.01711e-05
0.0399936
1.07e-05
0.0400052
1.14332e-05
0.0400026
1.43969e-05
0.04
1.76165e-05
0.0399994
1.91157e-05
0.0400206
1.29174e-05
0.0400138
1.30436e-05
0.039999
1.55103e-05
0.0399941
1.83307e-05
0.0399911
2.75104e-05
0.0399842
4.5055e-05
0.0399672
4.29493e-05
0.0399863
3.7171e-05
0.0400154
3.77083e-05
0.0399986
4.25152e-05
0.0399878
4.75471e-05
0.0399872
5.27449e-05
0.0399867
5.80351e-05
0.0399864
6.33416e-05
0.0399862
6.85797e-05
0.0399865
7.36562e-05
0.0399874
7.68928e-05
0.039995
7.57045e-05
0.0400166
7.82713e-05
0.0399968
8.18491e-05
0.039991
8.46721e-05
0.0399918
8.7291e-05
0.0399931
8.98589e-05
0.0399946
9.09599e-05
0.0399966
9.13866e-05
0.0399983
9.11422e-05
0.04
8.82605e-05
0.0400017
8.67569e-05
0.0400033
8.46766e-05
0.0400048
8.40662e-05
0.0400042
8.0973e-05
0.0400074
7.7455e-05
0.0400086
7.35521e-05
0.0400096
6.93277e-05
0.0400105
6.4831e-05
0.0400112
6.00964e-05
0.0400119
5.31789e-05
0.0400124
4.01101e-05
0.0400228
2.2941e-05
0.0400391
2.96501e-05
0.0400174
2.62903e-05
0.0400137
2.08824e-05
0.0400138
1.94397e-05
0.040012
2.19741e-05
0.040002
1.64932e-05
0.0400021
1.10014e-05
0.0400021
5.50398e-06
0.0400022
0.0400022
-1.57043e-07
0.0399891
1.71335e-06
0.0399871
1.64545e-06
0.0399889
1.67048e-06
0.0399886
1.82002e-06
0.0399882
2.1261e-06
0.0399877
6.62118e-06
0.0399891
1.33383e-05
0.0399984
1.43107e-05
0.0400017
1.55711e-05
0.0399988
1.91524e-05
0.0399958
3.90856e-05
0.0400007
2.33958e-05
0.0400295
1.81158e-05
0.0400043
1.92646e-05
0.0399929
2.48592e-05
0.0399855
3.69115e-05
0.0399721
4.54232e-05
0.0399587
4.63783e-05
0.0399853
4.37605e-05
0.040018
4.75428e-05
0.0399948
5.36716e-05
0.0399817
6.00876e-05
0.0399808
6.67144e-05
0.0399801
7.34587e-05
0.0399797
8.02265e-05
0.0399794
8.7104e-05
0.0399796
9.318e-05
0.0399813
9.79243e-05
0.0399902
9.79545e-05
0.0400166
0.000101608
0.0399931
0.000105925
0.0399867
0.000109914
0.0399878
0.000112706
0.0399903
0.000113866
0.0399934
0.00011517
0.0399953
0.000117599
0.0399959
0.000117173
0.0400005
0.000115921
0.0400029
0.000113883
0.0400053
0.000111122
0.0400076
0.00010568
0.0400096
0.000101648
0.0400115
9.90725e-05
0.0400112
9.40427e-05
0.0400146
8.86099e-05
0.0400159
8.28438e-05
0.040017
7.6801e-05
0.0400179
6.85352e-05
0.0400207
5.2104e-05
0.0400393
4.75435e-05
0.0400437
4.28514e-05
0.0400221
3.60885e-05
0.0400204
3.12759e-05
0.0400186
3.44346e-05
0.0400088
2.75652e-05
0.0400089
2.06827e-05
0.040009
1.37928e-05
0.040009
6.89932e-06
0.0400091
0.0400091
-1.66195e-07
0.0399893
-2.99244e-07
0.0399872
-3.58624e-07
0.0399889
-3.07052e-07
0.0399885
-1.06747e-07
0.039988
2.80737e-07
0.0399873
2.89445e-06
0.0399865
1.17739e-05
0.0399896
1.49601e-05
0.0399985
1.84926e-05
0.0399952
2.04119e-05
0.0399939
2.67577e-05
0.0399943
3.15611e-05
0.0400247
2.08617e-05
0.0400149
2.46851e-05
0.0399891
3.5053e-05
0.0399752
5.99859e-05
0.0399472
4.94835e-05
0.0399692
5.15298e-05
0.0399833
5.21109e-05
0.0400174
5.7192e-05
0.0399897
6.47093e-05
0.0399742
7.25905e-05
0.0399729
8.07375e-05
0.039972
8.9051e-05
0.0399714
9.75924e-05
0.0399708
0.000105628
0.0399716
0.000113603
0.0399734
0.000119582
0.0399843
0.00012094
0.0400152
0.000125762
0.0399883
0.000131299
0.0399812
0.000135714
0.0399834
0.000139536
0.0399865
0.000142909
0.03999
0.000144405
0.0399938
0.000142818
0.0399975
0.000142169
0.0400011
0.000140501
0.0400046
0.00013987
0.040006
0.000136347
0.0400111
0.000132013
0.0400139
0.000126954
0.0400165
0.000119264
0.0400188
0.000115014
0.0400189
0.000108309
0.0400226
0.00010121
0.0400241
9.37959e-05
0.0400253
7.41378e-05
0.0400403
5.03241e-05
0.0400631
6.03027e-05
0.0400337
5.41721e-05
0.0400283
4.79807e-05
0.0400266
4.77439e-05
0.0400189
3.94737e-05
0.0400171
3.11867e-05
0.0400172
2.28924e-05
0.0400173
1.45957e-05
0.0400173
8.3006e-06
0.0400153
0.0400174
1.7906e-06
0.0399875
-3.79935e-07
0.0399894
-4.65114e-07
0.039989
1.57823e-06
0.0399865
1.79403e-06
0.0399878
2.22719e-06
0.0399869
2.92342e-06
0.0399858
7.9294e-06
0.0399846
1.52928e-05
0.0399911
1.70626e-05
0.0399935
1.92856e-05
0.0399916
2.60117e-05
0.0399876
5.32831e-05
0.0399974
3.51353e-05
0.0400331
2.56208e-05
0.0399986
3.47531e-05
0.039966
4.85645e-05
0.0399334
5.30569e-05
0.0399647
5.82281e-05
0.0399781
6.00555e-05
0.0400156
6.64899e-05
0.0399833
7.54772e-05
0.0399652
8.4915e-05
0.0399635
9.47068e-05
0.0399622
0.000104706
0.0399614
0.000114753
0.0399608
0.00012469
0.0399616
0.000134333
0.0399637
0.000141686
0.0399769
0.000144688
0.0400122
0.000150823
0.0399822
0.000157258
0.0399747
0.000162776
0.0399779
0.000167083
0.0399822
0.000171094
0.039986
0.000172777
0.0399922
0.000173161
0.0399971
0.000172247
0.040002
0.000170102
0.0400068
0.0001648
0.0400113
0.000162439
0.0400134
0.000157125
0.0400193
0.000150945
0.0400227
0.000144034
0.0400258
0.000136498
0.0400264
0.000128426
0.0400307
0.000119914
0.0400326
0.00010707
0.0400382
8.59595e-05
0.0400614
7.86642e-05
0.0400704
7.31684e-05
0.0400392
6.55802e-05
0.0400358
6.59335e-05
0.0400263
5.82483e-05
0.0400266
4.85391e-05
0.0400268
3.88239e-05
0.0400269
2.91111e-05
0.040027
1.94038e-05
0.040027
9.70262e-06
0.040025
0.0400271
-2.95103e-07
0.0399878
-5.45428e-07
0.0399896
1.30076e-06
0.0399872
-7.07615e-07
0.0399885
1.47939e-06
0.0399856
1.91314e-06
0.0399865
2.64619e-06
0.0399851
3.73254e-06
0.0399835
1.32263e-05
0.0399816
1.71864e-05
0.0399895
1.9669e-05
0.0399891
2.27306e-05
0.0399846
3.24277e-05
0.0399877
2.88082e-05
0.0400367
3.19201e-05
0.0399955
4.77998e-05
0.0399502
5.04843e-05
0.0399307
5.59858e-05
0.0399592
6.43023e-05
0.0399698
6.74168e-05
0.0400125
7.5283e-05
0.0399754
8.58228e-05
0.0399547
9.69379e-05
0.0399524
0.000108497
0.0399506
0.000120332
0.0399496
0.000132273
0.0399489
0.000144091
0.0399498
0.00015536
0.0399525
0.000164865
0.0399674
0.000169307
0.0400078
0.000176883
0.0399746
0.000184563
0.0399671
0.00019128
0.0399712
0.000196307
0.0399772
0.000198597
0.0399837
0.000200484
0.0399903
0.000200788
0.0399968
0.000201552
0.0400013
0.000198853
0.0400095
0.0001948
0.0400153
0.000187483
0.0400208
0.000183066
0.0400237
0.000175678
0.0400301
0.000167442
0.040034
0.000156496
0.0400374
0.000148961
0.0400382
0.000136973
0.0400446
0.000112609
0.0400625
8.20505e-05
0.040092
9.71618e-05
0.0400552
8.81338e-05
0.0400483
8.70575e-05
0.0400369
7.59194e-05
0.0400374
6.47602e-05
0.0400377
5.35995e-05
0.0400379
4.24493e-05
0.0400381
3.33185e-05
0.0400361
2.22019e-05
0.0400381
9.09681e-06
0.0400382
0.0400362
-4.30829e-07
0.0399882
1.18896e-06
0.039988
-1.08437e-06
0.0399894
8.03854e-07
0.0399866
-1.09057e-06
0.0399875
-7.10185e-07
0.0399861
2.00417e-06
0.0399824
3.11429e-06
0.0399824
4.68353e-06
0.03998
1.67745e-05
0.0399774
2.14587e-05
0.0399845
2.28023e-05
0.0399832
2.88713e-05
0.0399817
4.37275e-05
0.0400219
4.54313e-05
0.0399938
7.20289e-05
0.0399236
5.75776e-05
0.0399452
6.20841e-05
0.0399547
6.75738e-05
0.0399643
7.60234e-05
0.040004
8.53845e-05
0.039966
9.55788e-05
0.0399445
0.000108502
0.0399394
0.000121985
0.0399371
0.00013586
0.0399357
0.000149874
0.0399348
0.000163993
0.0399357
0.000177342
0.0399391
0.000188614
0.0399561
0.000194881
0.0400015
0.000204289
0.0399652
0.00021337
0.039958
0.000220801
0.0399637
0.000226851
0.0399711
0.000231632
0.0399789
0.000233708
0.0399882
0.000233899
0.0399966
0.000230266
0.0400049
0.000228914
0.0400108
0.000223973
0.0400203
0.000217605
0.0400271
0.000207953
0.0400333
0.00020119
0.0400369
0.0001915
0.0400437
0.000181032
0.0400478
0.000167941
0.0400513
0.000154345
0.0400582
0.00013239
0.0400845
0.000120201
0.0401042
0.000113734
0.0400617
0.000111179
0.0400508
9.85515e-05
0.0400496
8.58995e-05
0.0400501
7.3254e-05
0.0400504
6.06328e-05
0.0400506
5.00485e-05
0.0400486
3.54949e-05
0.0400507
2.49792e-05
0.0400487
1.24844e-05
0.0400506
0.0400487
-6.23602e-07
0.0399889
-1.1911e-06
0.0399886
3.58134e-07
0.0399879
-1.91638e-06
0.0399889
4.67586e-08
0.0399855
3.10913e-07
0.0399858
9.42313e-07
0.0399817
2.00982e-06
0.0399813
3.5853e-06
0.0399785
5.74339e-06
0.0399752
1.85573e-05
0.0399716
2.41124e-05
0.0399777
3.0492e-05
0.0399753
7.17594e-05
0.0399806
5.40014e-05
0.0400116
5.32861e-05
0.0399243
5.5657e-05
0.0399428
6.31691e-05
0.0399472
7.58398e-05
0.0399516
9.16681e-05
0.0399882
9.26122e-05
0.0399651
0.000104575
0.0399325
0.000119441
0.0399246
0.000135052
0.0399215
0.000151161
0.0399196
0.000167527
0.0399185
0.000183817
0.0399194
0.000199492
0.0399234
0.000213222
0.0399424
0.000221594
0.0399931
0.000232663
0.0399541
0.000243299
0.0399473
0.000252397
0.0399546
0.000258949
0.0399646
0.000262452
0.0399754
0.000264715
0.0399859
0.000266731
0.0399946
0.000264603
0.040007
0.000258469
0.0400169
0.000254502
0.0400242
0.000246892
0.0400347
0.000237846
0.0400424
0.000227584
0.0400471
0.000216283
0.040055
0.000204147
0.04006
0.000187353
0.0400681
0.000154063
0.0400915
0.000128456
0.0401101
0.00014052
0.0400921
0.000136414
0.0400658
0.000124233
0.040063
0.000110028
0.0400638
9.5838e-05
0.0400643
8.36961e-05
0.0400625
6.96058e-05
0.0400646
5.35843e-05
0.0400647
4.16282e-05
0.0400626
2.57175e-05
0.0400646
1.38513e-05
0.0400625
0.0400625
-8.79856e-07
0.0399897
-1.6983e-06
0.0399894
-2.39148e-06
0.0399886
-8.95147e-07
0.0399874
-3.14289e-06
0.0399878
-1.06583e-06
0.0399837
-2.59077e-06
0.0399833
3.57491e-07
0.0399783
1.86006e-06
0.039977
4.00145e-06
0.0399731
6.86998e-06
0.0399688
2.05516e-05
0.039964
2.7152e-05
0.0399687
4.07675e-05
0.039967
5.54748e-05
0.0399968
4.73752e-05
0.0399324
5.45347e-05
0.0399356
6.70236e-05
0.0399347
8.48868e-05
0.0399338
0.000126118
0.039947
0.000112709
0.0399785
0.00011458
0.0399306
0.000129577
0.0399096
0.000147517
0.0399036
0.000166144
0.0399009
0.00018534
0.0398993
0.00020412
0.0399006
0.000222701
0.0399049
0.000238823
0.0399263
0.000249585
0.0399824
0.000262797
0.0399409
0.000275468
0.0399347
0.000285561
0.0399446
0.00029353
0.0399566
0.000299415
0.0399695
0.000301809
0.0399835
0.000299566
0.0399968
0.000298829
0.0400078
0.00029375
0.040022
0.000284566
0.0400334
0.000277527
0.0400418
0.000266883
0.040053
0.000252889
0.0400611
0.000241797
0.0400661
0.000225832
0.0400759
0.000199182
0.0400947
0.00016013
0.0401305
0.000162639
0.0401076
0.00016692
0.0400878
0.000153103
0.0400796
0.000137257
0.0400788
0.000121431
0.0400796
0.000105686
0.04008
9.00311e-05
0.0400782
7.44798e-05
0.0400802
6.10379e-05
0.0400781
4.56866e-05
0.040078
3.04115e-05
0.0400798
1.51918e-05
0.0400777
0.0400777
-1.20524e-06
0.0399909
-2.34415e-06
0.0399905
-3.35064e-06
0.0399896
-4.15646e-06
0.0399882
-2.69092e-06
0.0399863
-2.87973e-06
0.0399839
-2.64418e-06
0.039983
-1.90101e-06
0.0399776
-5.61465e-07
0.0399756
1.46929e-06
0.0399711
6.29025e-06
0.039964
1.00097e-05
0.0399603
2.2731e-05
0.039956
3.25868e-05
0.0399571
7.36672e-05
0.0399558
5.61073e-05
0.0399499
5.59932e-05
0.0399357
6.54186e-05
0.0399253
8.04599e-05
0.0399187
0.000105137
0.0399223
0.000107465
0.0399762
0.000119354
0.0399187
0.000138659
0.0398903
0.000159176
0.0398831
0.000180634
0.0398795
0.000202622
0.0398773
0.000224726
0.0398785
0.000246196
0.0398834
0.00026553
0.039907
0.000279116
0.0399688
0.000294837
0.0399252
0.000309386
0.0399201
0.000321517
0.0399324
0.000330372
0.0399478
0.000334874
0.039965
0.000339359
0.039979
0.000338737
0.0399975
0.000333186
0.0400133
0.000328951
0.0400263
0.000320318
0.040042
0.000307596
0.0400545
0.000297113
0.0400635
0.000283186
0.040075
0.000268078
0.0400812
0.000246073
0.0400979
0.000217434
0.0401234
0.000200329
0.0401476
0.000200939
0.040107
0.000185362
0.0401034
0.000167753
0.0400972
0.000150183
0.0400964
0.000132715
0.0400971
0.000117392
0.0400953
9.82176e-05
0.0400973
8.32151e-05
0.0400952
6.43563e-05
0.040097
4.76376e-05
0.0400947
3.30314e-05
0.0400945
1.64957e-05
0.0400943
0.0400942
-1.60459e-06
0.0399926
-1.13808e-06
0.03999
-2.53433e-06
0.039991
-3.7212e-06
0.0399894
-4.62437e-06
0.0399872
-5.16528e-06
0.0399845
-5.25986e-06
0.0399831
-4.81826e-06
0.0399772
-3.74355e-06
0.0399745
6.8165e-08
0.0399673
7.32967e-07
0.0399633
4.36837e-06
0.0399566
1.11021e-05
0.0399492
2.70646e-05
0.0399412
3.84212e-05
0.0399444
4.32879e-05
0.0399451
5.18076e-05
0.0399272
6.41012e-05
0.039913
7.82743e-05
0.0399046
9.44116e-05
0.0399062
0.000106539
0.039964
0.000124577
0.0399007
0.0001464
0.0398684
0.000169798
0.0398597
0.000194429
0.0398549
0.000219879
0.0398518
0.00024576
0.0398526
0.000270892
0.0398583
0.000293556
0.0398843
0.000310471
0.0399519
0.000329108
0.0399066
0.000346277
0.039903
0.000360092
0.0399186
0.000370209
0.0399376
0.00037731
0.0399579
0.000377806
0.0399786
0.000378638
0.0399966
0.000374056
0.0400179
0.000364385
0.0400359
0.000356003
0.0400504
0.000343317
0.0400672
0.000328687
0.0400781
0.000312509
0.0400912
0.000289131
0.0401046
0.000246881
0.0401402
0.000214099
0.0401562
0.000230813
0.0401309
0.000219294
0.0401185
0.00019975
0.0401229
0.000182265
0.0401147
0.000162933
0.0401157
0.000143786
0.0401162
0.000124869
0.0401142
0.000106188
0.040116
8.7742e-05
0.0401136
7.15147e-05
0.0401132
5.34644e-05
0.0401127
3.55566e-05
0.0401124
1.7752e-05
0.0401121
0.040112
-2.08168e-06
0.0399946
-4.0889e-06
0.0399921
-5.95495e-06
0.0399928
-7.60627e-06
0.039991
-8.9658e-06
0.0399886
-9.95155e-06
0.0399854
-8.47532e-06
0.0399816
-8.44092e-06
0.0399771
-5.74428e-06
0.0399718
-6.26994e-06
0.0399678
-1.89517e-06
0.0399589
1.5202e-06
0.0399532
6.12225e-06
0.0399446
1.20713e-05
0.0399352
2.75281e-05
0.039929
3.66908e-05
0.0399359
4.77128e-05
0.0399162
6.07735e-05
0.0398999
7.60203e-05
0.0398893
9.35796e-05
0.0398886
0.000109555
0.0399481
0.000127872
0.0398824
0.000152434
0.0398439
0.000179031
0.0398331
0.000207297
0.0398266
0.000236701
0.0398224
0.000266617
0.0398227
0.000296218
0.0398287
0.000323121
0.0398574
0.000343946
0.0399311
0.000366059
0.0398844
0.000385932
0.0398831
0.000401865
0.0399027
0.000413391
0.0399261
0.000421303
0.03995
0.000423676
0.0399762
0.000419727
0.0400006
0.000415805
0.0400218
0.000406345
0.0400454
0.000393851
0.0400629
0.000378761
0.0400823
0.000361641
0.0400953
0.000340884
0.040112
0.000302942
0.0401425
0.000254296
0.0401888
0.00026301
0.0401475
0.000257319
0.0401366
0.000235616
0.0401402
0.000218004
0.0401406
0.000194557
0.0401382
0.000175394
0.0401349
0.000154555
0.040137
0.000134045
0.0401347
0.000115877
0.0401342
9.40121e-05
0.0401355
7.44388e-05
0.0401328
5.51051e-05
0.0401321
3.79659e-05
0.0401295
1.89476e-05
0.0401311
0.0401309
-6.38676e-07
0.0399953
-5.20115e-06
0.0399966
-7.62102e-06
0.0399953
-7.82408e-06
0.0399912
-9.73249e-06
0.0399905
-1.1261e-05
0.039987
-1.232e-05
0.0399827
-1.28069e-05
0.0399776
-1.26115e-05
0.0399717
-9.61187e-06
0.0399648
-9.66668e-06
0.039959
-6.6274e-06
0.0399502
-3.2774e-07
0.0399383
5.42308e-06
0.0399295
1.48247e-05
0.0399196
3.00911e-05
0.0399206
3.94532e-05
0.0399068
5.51177e-05
0.0398843
7.13167e-05
0.0398731
9.22404e-05
0.0398677
0.000126022
0.0399143
0.000132763
0.0398756
0.000156298
0.0398203
0.000186456
0.0398029
0.000218854
0.0397942
0.000252891
0.0397884
0.000287751
0.0397879
0.000322308
0.0397941
0.000354432
0.0398253
0.000380036
0.0399055
0.000406318
0.0398582
0.000429576
0.0398598
0.000448231
0.039884
0.000461271
0.0399131
0.000467558
0.0399437
0.000471605
0.0399721
0.000468548
0.0400036
0.00046087
0.0400295
0.000449178
0.0400571
0.000434051
0.040078
0.000416141
0.0401002
0.000394045
0.0401173
0.000368328
0.0401377
0.000329498
0.0401813
0.000316019
0.0402023
0.000299928
0.0401635
0.00027781
0.0401587
0.000251845
0.0401662
0.000231967
0.0401604
0.000210503
0.0401596
0.000187471
0.0401579
0.000164909
0.0401596
0.000142816
0.0401568
0.000121168
0.0401558
0.000101956
0.0401547
8.10963e-05
0.0401536
6.05419e-05
0.0401526
3.82163e-05
0.0401518
2.00673e-05
0.0401492
0.040151
-3.2783e-06
0.0399985
-6.47796e-06
0.0399998
-7.53672e-06
0.0399963
-1.23821e-05
0.0399961
-1.29343e-05
0.039991
-1.51094e-05
0.0399892
-1.68139e-05
0.0399844
-1.79439e-05
0.0399787
-1.83838e-05
0.0399721
-1.8002e-05
0.0399644
-1.46555e-05
0.0399556
-1.21708e-05
0.0399477
-8.36155e-06
0.0399345
-3.01711e-06
0.0399241
4.10456e-06
0.0399124
1.32709e-05
0.0399115
3.27161e-05
0.0398874
4.4788e-05
0.0398722
6.57406e-05
0.0398522
9.38824e-05
0.0398396
0.000159359
0.0398488
0.000148601
0.0398864
0.000159384
0.0398096
0.000191501
0.0397708
0.000228621
0.0397571
0.000268073
0.0397489
0.000308862
0.0397471
0.000349764
0.0397532
0.000387844
0.0397872
0.000419204
0.0398741
0.00045056
0.0398268
0.000478064
0.0398323
0.00049946
0.0398626
0.000514182
0.0398984
0.000522937
0.039935
0.000522355
0.0399727
0.00051973
0.0400063
0.000507766
0.0400415
0.000495195
0.0400697
0.000474817
0.0400984
0.000455515
0.0401195
0.000425937
0.0401469
0.000368823
0.0401948
0.000332837
0.0402173
0.000341963
0.0401932
0.000326939
0.0401786
0.000300057
0.0401856
0.000273561
0.0401927
0.000247415
0.0401866
0.000223887
0.0401832
0.00019698
0.0401848
0.000174715
0.0401819
0.000151065
0.0401805
0.000127999
0.0401789
0.000105464
0.0401773
8.33888e-05
0.0401757
6.37035e-05
0.0401723
4.23e-05
0.0401732
2.1095e-05
0.0401704
0.0401721
-3.99919e-06
0.0400025
-7.91924e-06
0.0400037
-1.17036e-05
0.0400001
-1.32803e-05
0.0399976
-1.85743e-05
0.0399963
-1.95e-05
0.0399901
-2.19659e-05
0.0399869
-2.38666e-05
0.0399806
-2.50837e-05
0.0399733
-2.54816e-05
0.0399648
-2.49046e-05
0.039955
-2.11743e-05
0.0399439
-2.00765e-05
0.0399334
-1.33845e-05
0.0399174
-6.81113e-06
0.0399059
1.95908e-06
0.0399027
1.32397e-05
0.0398761
3.53843e-05
0.0398501
5.28439e-05
0.0398347
7.59907e-05
0.0398164
0.000115185
0.0398096
0.00013085
0.0398707
0.000154963
0.0397854
0.000193444
0.0397323
0.000235968
0.0397145
0.000281751
0.0397032
0.000329638
0.0396992
0.000377902
0.0397049
0.000423728
0.0397414
0.000462182
0.0398356
0.00049971
0.0397893
0.000532182
0.0397999
0.000556763
0.039838
0.000573493
0.0398816
0.000582517
0.039926
0.00058284
0.0399724
0.000576039
0.0400131
0.000562968
0.0400545
0.000544756
0.0400879
0.000522443
0.0401207
0.000492983
0.0401489
0.00044729
0.0401926
0.000386422
0.0402557
0.000388427
0.0402153
0.00037795
0.0402037
0.000349718
0.0402068
0.000317945
0.0402174
0.000290715
0.0402199
0.000264239
0.0402131
0.000234576
0.0402128
0.000209782
0.0402096
0.000183817
0.0402078
0.000158654
0.0402057
0.000134229
0.0402033
0.000112475
0.040199
8.92757e-05
0.0401989
6.45297e-05
0.0401971
4.41563e-05
0.0401936
2.00009e-05
0.0401946
0.0401921
-4.79986e-06
0.0400073
-7.52036e-06
0.0400065
-1.41154e-05
0.0400067
-1.85144e-05
0.040002
-2.0645e-05
0.0399985
-2.6428e-05
0.0399959
-2.77702e-05
0.0399882
-3.05743e-05
0.0399834
-3.07174e-05
0.0399735
-3.20626e-05
0.0399662
-3.24476e-05
0.0399554
-3.16882e-05
0.0399432
-2.9556e-05
0.0399313
-2.57914e-05
0.0399137
-2.00809e-05
0.0399002
-1.00605e-05
0.0398927
6.61742e-07
0.0398654
1.25582e-05
0.0398382
3.6103e-05
0.0398112
5.98964e-05
0.0397926
9.04807e-05
0.039779
0.00013635
0.0398249
0.00015398
0.0397678
0.000191255
0.039695
0.000239949
0.0396659
0.000293256
0.0396499
0.000349746
0.0396427
0.000407446
0.0396472
0.000462465
0.0396863
0.000509851
0.0397883
0.000555072
0.0397441
0.000593318
0.0397616
0.000622285
0.0398091
0.000640901
0.039863
0.000647631
0.0399192
0.000648167
0.0399719
0.000636229
0.040025
0.000621171
0.0400696
0.000594292
0.0401147
0.000561029
0.040154
0.000524538
0.0401854
0.000482084
0.0402351
0.000458394
0.0402794
0.000435988
0.0402377
0.000405742
0.0402339
0.000368037
0.0402445
0.000333212
0.0402522
0.000307091
0.040246
0.000276121
0.040244
0.00024833
0.0402406
0.000219645
0.0402383
0.000192036
0.0402354
0.000165422
0.0402323
0.000141748
0.040227
0.000114845
0.0402259
9.26464e-05
0.0402211
6.89894e-05
0.0402207
4.57525e-05
0.0402168
2.27958e-05
0.0402176
0.0402149
-5.67679e-06
0.040013
-1.12772e-05
0.0400121
-1.4761e-05
0.0400102
-2.00684e-05
0.0400074
-2.71319e-05
0.0400055
-2.98743e-05
0.0399986
-3.42125e-05
0.0399926
-3.80483e-05
0.0399873
-4.12663e-05
0.0399767
-4.37315e-05
0.0399686
-4.52826e-05
0.039957
-4.57267e-05
0.0399436
-4.28329e-05
0.0399284
-4.03132e-05
0.0399111
-3.38389e-05
0.0398937
-2.49892e-05
0.0398838
-1.72767e-05
0.0398577
-4.17789e-06
0.0398251
1.29717e-05
0.039794
4.285e-05
0.0397627
8.03004e-05
0.0397416
0.000165898
0.0397393
0.000161061
0.0397727
0.000185557
0.0396705
0.000239287
0.0396121
0.000301504
0.0395876
0.000368695
0.0395755
0.000437575
0.0395784
0.00050462
0.0396193
0.000563256
0.0397296
0.000618132
0.0396892
0.00066396
0.0397158
0.000697392
0.0397756
0.000717703
0.0398427
0.000725911
0.039911
0.000721638
0.0399761
0.000707369
0.0400393
0.000680901
0.0400961
0.000638144
0.0401575
0.000580726
0.0402114
0.000524365
0.0402418
0.000488205
0.0402712
0.000496829
0.0402707
0.000467511
0.040267
0.000428956
0.0402725
0.000389481
0.040284
0.000355183
0.0402865
0.000322227
0.040279
0.000290806
0.0402754
0.000258862
0.0402726
0.000228344
0.0402688
0.000199168
0.0402646
0.000173235
0.0402582
0.000144376
0.0402559
0.0001205
0.0402498
9.34055e-05
0.0402482
7.09858e-05
0.0402431
4.5031e-05
0.0402428
2.34281e-05
0.0402392
0.0402383
-6.62452e-06
0.0400197
-1.31764e-05
0.0400186
-1.96266e-05
0.0400166
-2.59243e-05
0.0400137
-3.00062e-05
0.0400096
-3.58081e-05
0.0400044
-4.12525e-05
0.039998
-4.62473e-05
0.0399923
-5.06929e-05
0.0399811
-5.44539e-05
0.0399724
-5.53789e-05
0.0399579
-5.72718e-05
0.0399455
-5.79079e-05
0.039929
-5.69906e-05
0.0399102
-5.2172e-05
0.0398889
-3.90185e-05
0.0398707
-3.48596e-05
0.0398535
-2.71677e-05
0.0398174
-1.11436e-05
0.039778
1.01615e-05
0.0397414
4.77484e-05
0.039704
9.48807e-05
0.0396921
0.00012493
0.0397426
0.000170488
0.039625
0.000232182
0.0395504
0.000304818
0.039515
0.000384956
0.0394954
0.000468825
0.0394945
0.000550919
0.0395372
0.000624485
0.0396561
0.000691531
0.0396221
0.000746174
0.0396611
0.000785245
0.0397366
0.000807334
0.0398206
0.000813528
0.0399048
0.000802758
0.0399869
0.000780433
0.0400616
0.000734925
0.0401416
0.000684493
0.0402079
0.00064551
0.0402504
0.000587903
0.0402994
0.000564612
0.0402945
0.000539027
0.0402963
0.000498413
0.0403077
0.000451172
0.0403197
0.000405666
0.0403295
0.000371717
0.0403204
0.000335802
0.0403149
0.00029989
0.0403114
0.000265858
0.0403066
0.000235614
0.0402991
0.000204978
0.0402952
0.00017584
0.0402873
0.000147992
0.0402837
0.000121268
0.0402765
9.74945e-05
0.040272
7.04441e-05
0.0402702
4.79835e-05
0.0402653
2.38849e-05
0.0402633
0.0402622
-7.63587e-06
0.0400273
-1.52042e-05
0.0400262
-2.26902e-05
0.0400241
-2.80482e-05
0.040019
-3.52321e-05
0.0400168
-4.2184e-05
0.0400114
-5.08394e-05
0.0400067
-5.51182e-05
0.0399966
-6.09291e-05
0.0399869
-6.41566e-05
0.0399756
-7.06561e-05
0.0399644
-7.22542e-05
0.0399471
-7.47168e-05
0.0399315
-7.57715e-05
0.0399113
-7.5042e-05
0.0398881
-6.80769e-05
0.0398637
-6.4188e-05
0.0398496
-5.47356e-05
0.0398079
-4.07638e-05
0.039764
-2.10971e-05
0.0397218
5.63786e-06
0.0396773
5.10129e-05
0.0396468
0.000102993
0.0396906
0.00014552
0.0395825
0.000216221
0.0394797
0.000301617
0.0394296
0.000397534
0.0393994
0.000499933
0.0393921
0.000603212
0.0394339
0.000696615
0.0395627
0.000777365
0.0395414
0.000843551
0.039595
0.000888705
0.0396914
0.000911622
0.0397977
0.000912728
0.0399037
0.000896962
0.0400027
0.000850605
0.040108
0.000793765
0.0401984
0.000751658
0.04025
0.000712899
0.0402892
0.000668167
0.0403441
0.000624843
0.0403378
0.00057451
0.0403467
0.000523959
0.0403582
0.000473611
0.04037
0.000429655
0.0403734
0.000388195
0.0403619
0.000349375
0.0403537
0.000311033
0.0403497
0.000275021
0.0403426
0.000241164
0.0403329
0.000209254
0.0403272
0.000179082
0.0403175
0.000152438
0.0403104
0.000123055
0.0403059
9.67601e-05
0.0402983
7.33285e-05
0.0402936
4.85261e-05
0.0402901
2.41424e-05
0.0402876
0.0402863
-8.70181e-06
0.040036
-1.53399e-05
0.0400328
-2.39197e-05
0.0400327
-3.44081e-05
0.0400295
-4.27635e-05
0.0400251
-5.09449e-05
0.0400195
-5.69004e-05
0.0400126
-6.45706e-05
0.0400042
-7.18746e-05
0.0399942
-7.87283e-05
0.0399825
-8.30012e-05
0.0399687
-9.05377e-05
0.0399547
-9.31429e-05
0.0399341
-9.65408e-05
0.0399147
-9.83967e-05
0.03989
-9.62337e-05
0.0398616
-8.94265e-05
0.0398428
-8.71216e-05
0.0398056
-7.63286e-05
0.0397532
-5.96521e-05
0.0397051
-3.33858e-05
0.039651
8.58196e-06
0.0396048
9.65492e-05
0.0396027
0.000108947
0.0395701
0.000185845
0.0197144
0.0196885
0.000286505
0.0196704
0.0196585
0.000402867
0.0196455
0.0196375
0.000532785
0.019633