/*--------------------------------*- C++ -*----------------------------------*\
  =========                 |
  \\      /  F ield         | OpenFOAM: The Open Source CFD Toolbox
   \\    /   O peration     | Website:  https://openfoam.org
    \\  /    A nd           | Version:  12
     \\/     M anipulation  |
\*---------------------------------------------------------------------------*/
FoamFile
{
    format      ascii;
    class       volVectorField;
    location    "100";
    object      U;
}
// * * * * * * * * * * * * * * * * * * * * * * * * * * * * * * * * * * * * * //

dimensions      [0 1 -1 0 0 0 0];

internalField   nonuniform List<vector> 
16227
(
(2 -1.33426e-06 -5.65327e-23)
(2 -3.96036e-06 5.66776e-23)
(2 -6.44802e-06 -5.66785e-23)
(2 -8.69756e-06 -5.67463e-23)
(2 -1.06107e-05 5.67472e-23)
(2 -1.20866e-05 5.68312e-23)
(2 -1.30255e-05 5.41955e-26)
(2 -1.33224e-05 -1.13794e-22)
(2 -1.28723e-05 1.7085e-22)
(2 -1.1573e-05 -1.13925e-22)
(2 -9.32389e-06 0)
(2 -6.02745e-06 1.14061e-22)
(2 -1.57591e-06 0)
(2 4.11909e-06 0)
(2 1.11305e-05 0)
(2 1.95231e-05 0)
(2 2.93414e-05 0)
(2 4.06072e-05 0)
(2 5.33141e-05 0)
(2 6.7425e-05 0)
(2 8.28668e-05 -1.08913e-22)
(2 9.95296e-05 1.42283e-24)
(2 0.000117263 1.07489e-22)
(2 0.000135873 0)
(2 0.000155131 -1.01817e-22)
(2 0.000174772 1.01817e-22)
(2 0.000194505 0)
(2 0.000214 4.77575e-23)
(2 0.000232944 0)
(2 0.000251028 0)
(2 0.000267927 0)
(2 0.000283335 0)
(2 0.000296963 0)
(2 0.000308603 7.22475e-23)
(2 0.000318068 -4.15886e-24)
(2 0.000325232 -6.80881e-23)
(2 0.000330005 0)
(2 0.000332359 5.52329e-23)
(2 0.000332309 -4.30904e-24)
(2 0.000329915 -5.09238e-23)
(2 0.000325273 0)
(2 0.000318513 0)
(2 0.000309783 0)
(2 0.000299252 0)
(2 0.000287094 0)
(2 0.000273488 0)
(2 0.000258611 0)
(2 0.000242649 0)
(2 0.00022575 0)
(2 0.000208052 0)
(2 0.000189702 0)
(2 0.000170817 0)
(2 0.000151527 0)
(2 0.000131892 0)
(2 0.000111973 -8.09246e-25)
(2 9.1838e-05 8.09279e-25)
(2 7.15574e-05 0)
(2 5.11889e-05 0)
(2 3.07627e-05 0)
(2 1.02703e-05 -8.69311e-25)
(2.00001 -2.93905e-06 2.42105e-26)
(2.00001 -8.69325e-06 0)
(2.00001 -1.38995e-05 0)
(2 -1.8196e-05 0)
(2 -2.12039e-05 -9.59765e-23)
(2 -2.25476e-05 0)
(2 -2.18444e-05 0)
(2 -1.87064e-05 -2.8872e-22)
(2 -1.27464e-05 1.92505e-22)
(2 -3.58154e-06 -3.85565e-22)
(1.99999 9.15353e-06 1.54257e-21)
(1.99999 2.5807e-05 -9.63914e-22)
(1.99999 4.67577e-05 4.82204e-22)
(1.99998 7.23312e-05 0)
(1.99998 0.000102775 0)
(1.99998 0.000138295 0)
(1.99997 0.000179032 0)
(1.99997 0.000225029 0)
(1.99997 0.000276228 0)
(1.99996 0.000332448 0)
(1.99996 0.000393372 0)
(1.99996 0.000458551 0)
(1.99996 0.000527382 0)
(1.99996 0.000599102 0)
(1.99995 0.000672817 0)
(1.99995 0.000747507 -1.68411e-22)
(1.99995 0.000822058 1.68404e-22)
(1.99995 0.000895246 -8.07316e-23)
(1.99996 0.000965865 0)
(1.99996 0.00103273 0)
(1.99996 0.00109464 0)
(1.99997 0.00115048 0)
(1.99997 0.00119923 0)
(1.99998 0.00124011 0)
(1.99998 0.00127248 0)
(1.99999 0.0012959 -1.07986e-22)
(1.99999 0.0013101 7.29889e-24)
(2 0.00131501 7.33585e-24)
(2 0.00131075 7.32065e-24)
(2.00001 0.00129761 8.60288e-23)
(2.00001 0.001276 7.16341e-23)
(2.00002 0.00124645 -7.16349e-23)
(2.00002 0.00120957 0)
(2.00003 0.00116604 0)
(2.00003 0.00111654 0)
(2.00003 0.00106175 0)
(2.00004 0.00100236 0)
(2.00004 0.000939057 0)
(2.00004 0.00087243 0)
(2.00004 0.000803039 0)
(2.00004 0.000731395 1.46744e-23)
(2.00005 0.000657924 -2.70533e-23)
(2.00005 0.000583074 -1.53818e-23)
(2.00005 0.000507107 1.53828e-23)
(2.00005 0.000430208 -4.83015e-24)
(2.00005 0.000352653 5.25943e-24)
(2.00005 0.000274673 -4.2961e-25)
(2.00005 0.000196407 -1.11151e-24)
(2.00005 0.000117977 1.11155e-24)
(2.00005 3.93832e-05 -2.61743e-25)
(2.00001 -2.78497e-06 9.54363e-23)
(2.00001 -8.14422e-06 0)
(2.00001 -1.24952e-05 0)
(2.00001 -1.51939e-05 0)
(2 -1.55583e-05 9.59816e-23)
(2 -1.29068e-05 -1.92222e-22)
(2 -6.55198e-06 -2.15753e-25)
(1.99999 4.19948e-06 2.88559e-22)
(1.99999 2.00412e-05 9.63522e-23)
(1.99998 4.16575e-05 3.85802e-22)
(1.99997 6.97056e-05 -3.85592e-22)
(1.99996 0.000104779 -7.71692e-22)
(1.99995 0.000147555 9.67337e-23)
(1.99995 0.000198592 0)
(1.99994 0.000258313 9.64283e-23)
(1.99993 0.000327079 0)
(1.99991 0.000405099 0)
(1.9999 0.000492429 0)
(1.99989 0.000588921 -3.77254e-22)
(1.99988 0.000694219 3.77198e-22)
(1.99988 0.00080768 -1.84985e-22)
(1.99987 0.000928498 1.84974e-22)
(1.99986 0.00105553 0)
(1.99986 0.00118736 -1.76687e-22)
(1.99985 0.00132232 3.58907e-24)
(1.99985 0.00145855 1.73075e-22)
(1.99985 0.001594 0)
(1.99986 0.00172644 0)
(1.99986 0.00185368 0)
(1.99987 0.0019735 0)
(1.99988 0.00208376 6.94884e-23)
(1.9999 0.00218245 -1.42578e-22)
(1.99991 0.0022678 0)
(1.99993 0.00233842 0)
(1.99995 0.00239316 1.15358e-22)
(1.99996 0.00243133 -1.15353e-22)
(1.99998 0.00245247 0)
(2 0.00245656 0)
(2.00002 0.00244389 0)
(2.00003 0.00241501 0)
(2.00005 0.00237077 0)
(2.00007 0.0023122 0)
(2.00008 0.00224047 -3.02516e-23)
(2.00009 0.00215684 0)
(2.0001 0.00206259 0)
(2.00011 0.00195898 0)
(2.00012 0.00184734 -1.53107e-23)
(2.00013 0.00172887 3.28937e-23)
(2.00013 0.00160464 0)
(2.00014 0.00147571 9.87322e-24)
(2.00014 0.00134298 0)
(2.00015 0.00120723 1.23742e-23)
(2.00015 0.00106922 1.39814e-23)
(2.00015 0.000929341 -3.29497e-24)
(2.00015 0.000788001 -8.25746e-24)
(2.00015 0.000645706 -2.88113e-25)
(2.00015 0.000502781 2.88219e-25)
(2.00015 0.000359417 0)
(2.00015 0.000215831 0)
(2.00015 7.20331e-05 1.72949e-24)
(2.00002 -2.04186e-06 0)
(2.00001 -5.81783e-06 0)
(2.00001 -8.11238e-06 -9.57489e-23)
(2.00001 -7.9933e-06 0)
(2 -4.46427e-06 -9.60068e-23)
(1.99999 3.46524e-06 9.60018e-23)
(1.99998 1.67995e-05 0)
(1.99997 3.65517e-05 -2.88999e-22)
(1.99996 6.37229e-05 2.88908e-22)
(1.99995 9.93197e-05 0)
(1.99993 0.000144317 -3.86483e-22)
(1.99991 0.000199552 -1.16095e-21)
(1.9999 0.000266016 -1.93178e-22)
(1.99988 0.000344508 0)
(1.99985 0.000435667 -9.64315e-23)
(1.99983 0.000539998 0)
(1.99981 0.000657816 0)
(1.99979 0.000789197 7.62887e-22)
(1.99977 0.000933924 -7.62726e-22)
(1.99975 0.00109139 0)
(1.99973 0.00126072 -1.85941e-22)
(1.99972 0.0014407 2.29433e-24)
(1.9997 0.00162959 2.69997e-24)
(1.99969 0.00182528 1.80925e-22)
(1.99969 0.00202532 0)
(1.99969 0.0022269 0)
(1.99969 0.00242695 0)
(1.9997 0.00262217 8.03652e-23)
(1.99971 0.00280924 -9.04464e-25)
(1.99973 0.00298492 7.47487e-23)
(1.99976 0.00314598 -1.72903e-24)
(1.99979 0.00328944 0)
(1.99982 0.00341272 0)
(1.99985 0.00351375 0)
(1.99989 0.00359093 -1.15678e-22)
(1.99993 0.00364321 7.42971e-24)
(1.99997 0.00367006 7.52102e-24)
(2.00001 0.00367155 7.55526e-24)
(2.00005 0.00364817 1.78791e-22)
(2.00008 0.00360081 -8.56253e-23)
(2.00012 0.00353082 0)
(2.00015 0.00343981 -3.34288e-23)
(2.00018 0.00332959 3.02346e-23)
(2.0002 0.00320203 0)
(2.00023 0.00305911 0)
(2.00025 0.0029028 0)
(2.00026 0.002735 -1.75719e-23)
(2.00028 0.00255752 0)
(2.00029 0.00237195 0)
(2.0003 0.00217983 -1.9084e-23)
(2.00031 0.0019825 -2.57029e-23)
(2.00031 0.00178109 4.3933e-23)
(2.00032 0.00157667 -1.8237e-23)
(2.00032 0.00136966 -8.30001e-24)
(2.00033 0.00116087 5.87144e-24)
(2.00033 0.000950948 0)
(2.00033 0.000740283 0)
(2.00033 0.000529076 -2.28059e-24)
(2.00033 0.000317654 0)
(2.00033 0.000105995 0)
(2.00002 -1.37111e-06 0)
(2.00002 -3.69644e-06 0)
(2.00001 -4.06496e-06 8.32143e-26)
(2 -1.25313e-06 0)
(1.99999 6.04851e-06 0)
(1.99998 1.91486e-05 -1.92145e-22)
(1.99996 3.9374e-05 -2.88865e-22)
(1.99994 6.80626e-05 2.88561e-22)
(1.99992 0.000106538 0)
(1.9999 0.000156139 0)
(1.99987 0.000218197 -3.87141e-22)
(1.99984 0.000293799 2.32128e-21)
(1.99981 0.000384289 -1.9308e-22)
(1.99977 0.000490674 1.93855e-22)
(1.99974 0.000613907 0)
(1.9997 0.000754651 0)
(1.99967 0.000913341 3.85349e-22)
(1.99963 0.00109015 1.15384e-21)
(1.99959 0.00128483 -5.7501e-22)
(1.99956 0.00149644 0)
(1.99953 0.00172405 0)
(1.9995 0.00196593 0)
(1.99948 0.00221974 0)
(1.99946 0.00248266 -1.79377e-22)
(1.99945 0.00275137 3.54144e-24)
(1.99945 0.00302207 4.01872e-24)
(1.99946 0.00329057 1.71746e-22)
(1.99948 0.00355239 8.29396e-23)
(1.9995 0.00380298 -1.03451e-24)
(1.99954 0.00403793 -7.83384e-23)
(1.99958 0.0042528 2.18892e-22)
(1.99963 0.00444354 -1.4457e-22)
(1.99969 0.00460668 -1.30903e-22)
(1.99975 0.00473946 1.30891e-22)
(1.99982 0.00483973 1.16144e-22)
(1.99988 0.00490614 -1.16135e-22)
(1.99995 0.00493806 0)
(2.00002 0.00493568 0)
(2.00009 0.00489981 -8.53054e-23)
(2.00015 0.00483175 8.53057e-23)
(2.00021 0.00473344 7.01691e-23)
(2.00027 0.00460719 -3.67616e-23)
(2.00032 0.00445547 0)
(2.00036 0.00428088 0)
(2.0004 0.00408623 0)
(2.00044 0.00387414 0)
(2.00047 0.00364719 0)
(2.00049 0.00340785 0)
(2.00051 0.00315828 -1.07766e-23)
(2.00053 0.00290048 -3.84036e-23)
(2.00054 0.00263625 3.09185e-23)
(2.00055 0.00236712 1.49989e-23)
(2.00056 0.00209431 -1.9699e-23)
(2.00057 0.0018184 2.56031e-24)
(2.00057 0.00154061 -2.56054e-24)
(2.00057 0.00126163 0)
(2.00058 0.000981894 0)
(2.00058 0.000701606 -9.52261e-25)
(2.00058 0.000421167 0)
(2.00058 0.000140506 0)
(2.00002 -1.09229e-06 -9.51178e-23)
(2.00002 -2.73602e-06 0)
(2.00001 -1.94976e-06 -2.33386e-27)
(2 2.779e-06 9.56721e-23)
(1.99998 1.30749e-05 0)
(1.99996 3.05708e-05 4.9235e-26)
(1.99993 5.69124e-05 -1.92541e-22)
(1.9999 9.37777e-05 1.92463e-22)
(1.99987 0.00014283 0)
(1.99983 0.000205744 0)
(1.99979 0.000284241 1.93995e-22)
(1.99975 0.000379702 7.771e-22)
(1.9997 0.000493841 -3.8787e-22)
(1.99964 0.000627925 1.9494e-22)
(1.99959 0.00078324 0)
(1.99953 0.00096068 -1.94341e-22)
(1.99948 0.00116084 1.94346e-22)
(1.99942 0.00138407 9.37816e-25)
(1.99936 0.00163005 -8.67639e-22)
(1.99931 0.00189767 -1.90672e-22)
(1.99926 0.00218595 1.92755e-22)
(1.99922 0.00249255 2.09361e-24)
(1.99918 0.00281463 1.86986e-22)
(1.99916 0.00314861 0)
(1.99915 0.00349022 0)
(1.99914 0.00383455 0)
(1.99916 0.00417621 0)
(1.99918 0.00450937 -8.29143e-23)
(1.99923 0.00482812 0)
(1.99928 0.00512666 0)
(1.99935 0.0053993 2.22305e-22)
(1.99943 0.00564066 -1.46111e-22)
(1.99952 0.00584628 0)
(1.99962 0.00601267 0)
(1.99972 0.00613708 0)
(1.99983 0.00621786 0)
(1.99994 0.00625432 1.00883e-22)
(2.00005 0.00624677 -8.00693e-24)
(2.00015 0.00619648 -1.37222e-22)
(2.00025 0.00610532 0)
(2.00034 0.00597586 0)
(2.00043 0.00581121 6.18045e-23)
(2.0005 0.00561465 -9.05192e-23)
(2.00057 0.00538971 0)
(2.00063 0.00513996 0)
(2.00069 0.00486884 0)
(2.00073 0.00457968 0)
(2.00077 0.00427561 0)
(2.0008 0.00395938 2.89371e-23)
(2.00082 0.00363355 5.24918e-23)
(2.00084 0.00330034 -5.39717e-23)
(2.00086 0.00296166 1.09125e-23)
(2.00087 0.00261862 -6.21927e-24)
(2.00088 0.00227245 0)
(2.00089 0.00192453 -1.709e-24)
(2.00089 0.00157551 0)
(2.00089 0.0012258 0)
(2.00089 0.0008757 3.23182e-24)
(2.00089 0.000525576 0)
(2.0009 0.000175298 -5.05943e-24)
(2.00002 -1.45938e-06 1.67814e-25)
(2.00002 -3.69895e-06 0)
(2.00001 -3.04417e-06 0)
(1.99999 2.30697e-06 -9.55449e-23)
(1.99996 1.42932e-05 0)
(1.99993 3.48699e-05 9.59911e-23)
(1.9999 6.60093e-05 -9.62872e-23)
(1.99986 0.000109735 1.92636e-22)
(1.99981 0.000168072 0)
(1.99976 0.000243036 -3.87893e-22)
(1.9997 0.000336774 1.93877e-22)
(1.99963 0.000451045 1.84124e-24)
(1.99956 0.000587874 7.83273e-22)
(1.99949 0.000748965 -3.90285e-22)
(1.99941 0.000935827 -1.36062e-25)
(1.99932 0.00114977 -9.74026e-23)
(1.99924 0.00139161 1.95439e-21)
(1.99916 0.00166195 -7.83315e-22)
(1.99908 0.00196049 -1.26374e-21)
(1.999 0.00228599 1.75063e-21)
(1.99893 0.00263753 1.95073e-22)
(1.99887 0.00301202 -1.89337e-22)
(1.99882 0.00340626 2.41309e-24)
(1.99878 0.00381581 1.86856e-22)
(1.99876 0.0042354 0)
(1.99876 0.00465891 0)
(1.99878 0.00507957 0)
(1.99882 0.00549004 0)
(1.99888 0.00588281 8.26968e-23)
(1.99896 0.00625054 0)
(1.99906 0.00658598 -2.26815e-22)
(1.99918 0.00688229 0)
(1.99931 0.00713386 1.33424e-22)
(1.99946 0.00733631 -1.33402e-22)
(1.99961 0.00748626 1.17541e-22)
(1.99977 0.00758181 -8.20947e-24)
(1.99992 0.00762223 -2.10319e-22)
(2.00008 0.00760802 1.01001e-22)
(2.00023 0.00754105 -4.00673e-23)
(2.00037 0.00742387 8.43968e-23)
(2.00051 0.00725989 3.58262e-23)
(2.00063 0.00705312 0)
(2.00074 0.00680785 2.86902e-23)
(2.00084 0.00652862 0)
(2.00092 0.00621989 0)
(2.001 0.00588605 1.73024e-23)
(2.00106 0.0055312 -1.41494e-23)
(2.00111 0.00515923 0)
(2.00116 0.00477343 9.73276e-23)
(2.00119 0.00437702 2.54654e-23)
(2.00122 0.00397271 -8.88952e-23)
(2.00124 0.00356251 -5.96383e-24)
(2.00125 0.00314767 5.0158e-24)
(2.00126 0.00273011 8.0247e-25)
(2.00127 0.00231107 1.7085e-24)
(2.00127 0.00189116 0)
(2.00128 0.0014709 -9.82237e-24)
(2.00128 0.00105053 4.70503e-24)
(2.00128 0.000630379 0)
(2.00128 0.000210207 -1.39004e-24)
(2.00003 -2.70364e-06 9.49611e-23)
(2.00002 -7.27855e-06 0)
(2 -8.50804e-06 0)
(1.99998 -4.3027e-06 9.53633e-23)
(1.99995 7.58626e-06 -2.01505e-25)
(1.99991 2.94323e-05 9.57641e-23)
(1.99986 6.35431e-05 -9.60934e-23)
(1.9998 0.000112283 -2.8952e-22)
(1.99974 0.000178063 1.93048e-22)
(1.99967 0.000263264 -3.88595e-22)
(1.99958 0.00037046 -9.86956e-23)
(1.9995 0.000501896 5.85382e-22)
(1.9994 0.000659893 -1.56221e-21)
(1.9993 0.000846719 -7.85171e-22)
(1.99919 0.00106425 7.86021e-22)
(1.99908 0.00131408 -9.82122e-23)
(1.99896 0.00159753 2.37461e-21)
(1.99885 0.00191533 -3.94638e-22)
(1.99874 0.00226761 -3.90297e-22)
(1.99863 0.00265288 -1.16364e-21)
(1.99853 0.00307041 1.98795e-22)
(1.99845 0.00351641 0)
(1.99838 0.00398732 0)
(1.99833 0.0044778 -1.86999e-22)
(1.9983 0.00498154 3.37064e-24)
(1.9983 0.00549102 1.83538e-22)
(1.99833 0.00599792 0)
(1.99838 0.00649315 1.69673e-22)
(1.99846 0.0069673 -2.52255e-22)
(1.99858 0.00741125 0)
(1.99872 0.00781586 7.12219e-23)
(1.99888 0.00817257 -2.93392e-22)
(1.99907 0.00847447 7.82509e-24)
(1.99927 0.00871614 2.62046e-22)
(1.99948 0.00889348 -8.42831e-24)
(1.99969 0.00900427 -1.18464e-22)
(1.99991 0.00904788 0)
(2.00013 0.00902519 9.2426e-23)
(2.00033 0.00893872 -8.64391e-24)
(2.00053 0.00879194 -8.37792e-23)
(2.00071 0.00858927 -7.10063e-23)
(2.00088 0.00833593 0)
(2.00103 0.00803728 0)
(2.00116 0.00769905 -2.31373e-23)
(2.00128 0.00732682 0)
(2.00138 0.00692593 -3.33175e-23)
(2.00146 0.00650141 1.41404e-23)
(2.00153 0.00605791 -1.9576e-23)
(2.00158 0.00559945 -9.00025e-23)
(2.00163 0.0051297 -3.30916e-23)
(2.00166 0.00465201 2.36837e-23)
(2.00169 0.00416808 -7.75499e-24)
(2.0017 0.00368002 1.70814e-24)
(2.00172 0.00318998 -5.00764e-24)
(2.00172 0.00269889 0)
(2.00173 0.00220751 0)
(2.00173 0.0017163 -1.6162e-24)
(2.00173 0.00122544 0)
(2.00173 0.000735181 0)
(2.00174 0.000245096 6.44746e-24)
(2.00003 -5.03631e-06 0)
(2.00002 -1.41082e-05 0)
(2 -1.9397e-05 9.49932e-23)
(1.99997 -1.85429e-05 -9.53849e-23)
(1.99993 -8.99277e-06 0)
(1.99988 1.18477e-05 -1.91589e-22)
(1.99982 4.66177e-05 9.57785e-23)
(1.99974 9.80287e-05 9.62344e-23)
(1.99966 0.000168893 0)
(1.99956 0.000261994 0)
(1.99946 0.000380322 -2.93508e-22)
(1.99934 0.000526692 1.95362e-22)
(1.99922 0.000703859 7.87984e-22)
(1.99908 0.000914554 2.37629e-21)
(1.99894 0.00116131 0)
(1.99879 0.0014459 -3.99077e-22)
(1.99864 0.00177044 -1.58577e-21)
(1.99849 0.00213578 -4.0061e-22)
(1.99834 0.00254276 -7.92805e-22)
(1.9982 0.00298972 1.99096e-22)
(1.99807 0.00347623 -3.91109e-22)
(1.99795 0.00399779 1.52587e-24)
(1.99786 0.00455058 2.05778e-24)
(1.99779 0.00512837 1.93277e-22)
(1.99775 0.00572364 0)
(1.99775 0.00632736 0)
(1.99778 0.00692938 0)
(1.99785 0.00751858 8.91502e-23)
(1.99796 0.00808331 -8.6232e-23)
(1.99812 0.00861226 0)
(1.9983 0.00909404 1.49878e-22)
(1.99852 0.00951797 -1.53235e-22)
(1.99877 0.0098756 0)
(1.99904 0.0101603 0)
(1.99932 0.0103673 1.82079e-22)
(1.99961 0.0104938 -1.19581e-22)
(1.9999 0.0105396 -1.01303e-22)
(2.00019 0.010506 1.93407e-22)
(2.00046 0.0103965 -9.21053e-23)
(2.00072 0.0102156 0)
(2.00096 0.00996918 1.00604e-22)
(2.00118 0.00966373 -6.54301e-23)
(2.00138 0.00930606 -2.58782e-23)
(2.00155 0.0089032 4.49964e-23)
(2.0017 0.00846205 0)
(2.00182 0.00798905 1.60161e-23)
(2.00193 0.00749022 -2.24251e-23)
(2.00202 0.00697101 1.95622e-23)
(2.00208 0.00643624 -2.28626e-23)
(2.00214 0.00589028 4.54753e-23)
(2.00218 0.00533656 6.5711e-24)
(2.00221 0.00477687 -1.66512e-24)
(2.00223 0.00421426 1.66558e-24)
(2.00224 0.00365052 3.32891e-24)
(2.00225 0.00308662 -1.26532e-23)
(2.00226 0.00252333 -1.01905e-24)
(2.00226 0.00196103 1.38743e-23)
(2.00226 0.00139974 -9.25386e-24)
(2.00226 0.000839533 0)
(2.00226 0.000279804 0)
(2.00004 -8.65047e-06 0)
(2.00003 -2.47663e-05 0)
(2.00001 -3.6689e-05 -1.89698e-22)
(1.99997 -4.17992e-05 0)
(1.99992 -3.72465e-05 0)
(1.99985 -2.01339e-05 1.89322e-25)
(1.99977 1.25154e-05 0)
(1.99968 6.37671e-05 -9.65886e-23)
(1.99957 0.000136834 -9.72716e-23)
(1.99945 0.000234929 9.70291e-23)
(1.99932 0.000361504 -3.92019e-22)
(1.99917 0.000519964 3.92016e-22)
(1.99901 0.000713659 0)
(1.99884 0.000945738 -2.3685e-21)
(1.99866 0.00121966 -3.96657e-22)
(1.99847 0.00153721 3.99841e-22)
(1.99827 0.00190178 -2.41463e-21)
(1.99808 0.00231446 8.03826e-22)
(1.99788 0.00277693 -4.03057e-22)
(1.9977 0.00328737 0)
(1.99753 0.00384599 -4.05689e-22)
(1.99737 0.00444763 0)
(1.99725 0.00508831 -1.97408e-22)
(1.99716 0.00576084 1.9735e-22)
(1.9971 0.00645648 -1.91707e-22)
(1.99709 0.00716442 9.53973e-23)
(1.99713 0.00787246 0)
(1.99723 0.00856697 -8.91341e-23)
(1.99737 0.0092336 2.63225e-22)
(1.99757 0.00985845 8.5042e-23)
(1.99781 0.0104273 -1.6057e-22)
(1.9981 0.0109269 -6.90501e-23)
(1.99842 0.011347 1.48336e-22)
(1.99877 0.0116794 0)
(1.99914 0.0119185 5.84684e-23)
(1.99952 0.0120613 -9.65709e-24)
(1.9999 0.0121077 -9.74168e-24)
(2.00027 0.0120601 -1.01433e-22)
(2.00063 0.0119229 8.21011e-23)
(2.00096 0.0117023 -1.2042e-22)
(2.00127 0.0114057 3.35574e-23)
(2.00154 0.0110413 0)
(2.00179 0.0106177 2.58583e-23)
(2.00201 0.0101435 -2.18589e-23)
(2.00219 0.00962703 0)
(2.00235 0.00907599 0)
(2.00248 0.00849753 2.24087e-23)
(2.00258 0.00789805 -3.35325e-24)
(2.00266 0.00728296 -2.18779e-23)
(2.00273 0.00665755 1.87647e-23)
(2.00277 0.00602464 7.57536e-25)
(2.00281 0.0053873 -3.75861e-24)
(2.00283 0.0047486 -5.32865e-24)
(2.00284 0.00411007 -1.48973e-24)
(2.00285 0.00347277 4.74748e-24)
(2.00286 0.00283738 0)
(2.00286 0.00220404 0)
(2.00286 0.00157264 2.05756e-23)
(2.00286 0.000942994 0)
(2.00286 0.000314197 0)
(2.00007 -1.37236e-05 0)
(2.00005 -3.97918e-05 0)
(2.00002 -6.1286e-05 5.59357e-26)
(1.99997 -7.5352e-05 9.465e-23)
(1.99991 -7.88561e-05 0)
(1.99983 -6.8614e-05 9.55024e-23)
(1.99973 -4.13221e-05 9.60527e-23)
(1.99962 6.44295e-06 4.99758e-25)
(1.99949 7.83052e-05 2.66969e-25)
(1.99934 0.000177931 -9.7698e-23)
(1.99917 0.000309236 9.7675e-23)
(1.99899 0.000476252 9.87426e-23)
(1.99879 0.000683097 -1.98927e-22)
(1.99858 0.000933271 -1.60138e-21)
(1.99835 0.00123146 -4.05431e-22)
(1.99811 0.0015799 1.61301e-21)
(1.99786 0.00198273 1.21652e-21)
(1.99761 0.002442 -8.16442e-22)
(1.99737 0.00296026 8.18519e-22)
(1.99713 0.00353582 1.24412e-21)
(1.99691 0.00416984 2.01199e-22)
(1.99671 0.00485639 -2.09588e-24)
(1.99655 0.00559174 -2.02132e-22)
(1.99642 0.00636768 4.0194e-22)
(1.99635 0.00717414 -1.99801e-22)
(1.99633 0.00799837 9.62447e-23)
(1.99638 0.00882564 0)
(1.99649 0.0096394 9.43056e-23)
(1.99667 0.010422 9.34162e-23)
(1.99692 0.0111562 -8.86378e-23)
(1.99723 0.0118244 7.8337e-23)
(1.9976 0.0124101 7.72304e-23)
(1.99802 0.0129009 6.7879e-23)
(1.99847 0.0132865 -1.42369e-22)
(1.99894 0.0135605 0)
(1.99942 0.0137198 -1.12012e-22)
(1.99991 0.0137647 1.04123e-23)
(2.00038 0.0136987 1.01545e-22)
(2.00082 0.0135279 -8.09693e-23)
(2.00124 0.0132604 1.07017e-23)
(2.00163 0.0129056 4.99268e-24)
(2.00197 0.012474 -7.98383e-23)
(2.00228 0.0119762 5.22014e-23)
(2.00254 0.0114225 -1.8686e-23)
(2.00277 0.0108231 -1.46082e-23)
(2.00295 0.0101871 -4.05542e-23)
(2.00311 0.00952279 9.50768e-23)
(2.00323 0.00883753 2.81051e-25)
(2.00333 0.00813765 6.01588e-23)
(2.0034 0.00742919 -9.25163e-24)
(2.00345 0.00671425 -7.09132e-25)
(2.00348 0.00599721 7.54119e-24)
(2.00351 0.00528094 7.51312e-24)
(2.00352 0.00456672 -7.51576e-24)
(2.00353 0.00385564 8.59954e-24)
(2.00353 0.00314812 1.12829e-23)
(2.00352 0.00244413 -1.12869e-23)
(2.00352 0.00174324 1.31654e-24)
(2.00352 0.00104499 -1.26412e-23)
(2.00352 0.000348088 0)
(2.0001 -2.04188e-05 0)
(2.00008 -5.96713e-05 0)
(2.00004 -9.4014e-05 0)
(1.99999 -0.000120377 -9.45542e-23)
(1.99991 -0.000135373 9.45575e-23)
(1.99981 -0.000135556 -9.53622e-23)
(1.9997 -0.000117299 9.53691e-23)
(1.99956 -7.68296e-05 0)
(1.9994 -1.01236e-05 0)
(1.99922 8.69742e-05 9.78197e-23)
(1.99902 0.000218886 -1.96397e-22)
(1.9988 0.000390222 -2.37213e-25)
(1.99856 0.000606044 3.99635e-22)
(1.99829 0.000870439 1.20284e-21)
(1.99801 0.00118905 8.12945e-22)
(1.99772 0.0015654 -8.14404e-22)
(1.99741 0.00200381 -8.27319e-22)
(1.9971 0.00250807 5.17247e-22)
(1.99679 0.00308172 -4.19954e-22)
(1.99649 0.00372349 3.24092e-23)
(1.99621 0.00443585 -8.35341e-22)
(1.99595 0.00521293 1.67491e-21)
(1.99574 0.00605058 -2.08656e-22)
(1.99557 0.00693994 0)
(1.99547 0.00786955 0)
(1.99544 0.00882455 0)
(1.99549 0.00978714 0)
(1.99563 0.0107373 -9.42978e-23)
(1.99585 0.0116531 9.71455e-23)
(1.99616 0.0125136 -1.94821e-25)
(1.99656 0.0132962 0)
(1.99702 0.0139809 7.41913e-23)
(1.99755 0.0145521 -8.12478e-23)
(1.99811 0.0149977 7.10884e-23)
(1.99871 0.0153098 1.24066e-22)
(1.99932 0.0154853 -1.83627e-22)
(1.99992 0.0155255 -1.01639e-22)
(2.00051 0.0154353 5.3702e-23)
(2.00107 0.0152231 0)
(2.00158 0.0148995 3.7508e-23)
(2.00205 0.0144766 1.24195e-24)
(2.00247 0.0139675 1.52489e-24)
(2.00284 0.0133852 -2.1249e-23)
(2.00316 0.0127425 -2.93892e-23)
(2.00343 0.0120512 4.59585e-23)
(2.00365 0.0113221 -6.37067e-23)
(2.00383 0.0105648 6.37126e-23)
(2.00397 0.0097881 -6.50629e-23)
(2.00407 0.00899852 -2.48193e-23)
(2.00415 0.00820274 8.96859e-24)
(2.00421 0.00740281 0)
(2.00424 0.00660402 -8.20158e-24)
(2.00426 0.0058087 8.20475e-24)
(2.00427 0.00501807 0)
(2.00427 0.00423307 0)
(2.00427 0.00345377 0)
(2.00426 0.00267992 0)
(2.00426 0.00191055 0)
(2.00425 0.00114492 0)
(2.00425 0.000381263 0)
(2.00015 -2.88798e-05 0)
(2.00012 -8.48405e-05 0)
(2.00008 -0.000135606 0)
(2.00001 -0.000177936 0)
(1.99992 -0.000208207 0)
(1.99981 -0.000222747 9.50469e-23)
(1.99967 -0.000217632 -1.90683e-22)
(1.99951 -0.000188752 9.56479e-23)
(1.99932 -0.000131699 -9.70672e-23)
(1.99911 -4.18139e-05 -8.21602e-25)
(1.99887 8.58906e-05 9.79003e-23)
(1.9986 0.000256585 0)
(1.99831 0.000476271 -2.02853e-22)
(1.99799 0.000749991 -6.13821e-22)
(1.99765 0.00108402 4.09505e-21)
(1.9973 0.00148393 -1.64287e-21)
(1.99692 0.00195462 8.33927e-22)
(1.99654 0.00250137 1.61729e-24)
(1.99615 0.00312912 5.27141e-22)
(1.99578 0.00383785 -8.26186e-22)
(1.99542 0.0046311 -1.73163e-21)
(1.9951 0.0055043 1.14255e-23)
(1.99482 0.00645249 0)
(1.9946 0.00746664 -2.12227e-22)
(1.99446 0.00853393 2.41613e-24)
(1.99441 0.00963699 2.09605e-22)
(1.99446 0.0107545 0)
(1.99462 0.0118622 0)
(1.99489 0.0129328 -9.4506e-23)
(1.99528 0.0139402 -1.84391e-22)
(1.99577 0.0148563 1.70675e-22)
(1.99635 0.0156558 -8.90287e-23)
(1.997 0.0163195 0)
(1.99771 0.0168326 -2.08959e-22)
(1.99845 0.0171861 7.11668e-23)
(1.99921 0.0173769 1.13016e-22)
(1.99996 0.0174076 -1.13739e-22)
(2.00068 0.0172855 4.78659e-23)
(2.00136 0.0170217 3.64498e-23)
(2.00199 0.0166304 -1.13289e-22)
(2.00256 0.0161269 1.4857e-24)
(2.00306 0.0155276 1.79882e-24)
(2.0035 0.0148486 2.12265e-23)
(2.00388 0.0141052 2.27689e-24)
(2.00419 0.0133115 0)
(2.00444 0.0124802 3.64293e-24)
(2.00464 0.0116219 4.39041e-23)
(2.0048 0.0107473 1.8122e-23)
(2.00491 0.00986227 -4.8762e-23)
(2.005 0.00897484 4.05264e-24)
(2.00505 0.00808703 0)
(2.00508 0.00720439 -1.08875e-23)
(2.00509 0.0063288 1.08922e-23)
(2.0051 0.00546133 0)
(2.00509 0.00460262 0)
(2.00508 0.00375225 0)
(2.00507 0.00290965 -1.71218e-23)
(2.00506 0.00207331 1.71281e-23)
(2.00505 0.00124205 0)
(2.00505 0.000413473 0)
(2.00021 -3.92308e-05 0)
(2.00019 -0.000115664 0)
(2.00014 -0.000186695 0)
(2.00006 -0.000248933 0)
(1.99995 -0.000298581 0)
(1.99982 -0.000331764 -9.46381e-23)
(1.99966 -0.000344301 1.89941e-22)
(1.99948 -0.000331777 7.58423e-25)
(1.99926 -0.00028941 8.5493e-25)
(1.99901 -0.000212061 9.88485e-23)
(1.99872 -9.41353e-05 -2.94776e-22)
(1.99841 7.01401e-05 -1.11446e-24)
(1.99806 0.000287654 1.00071e-22)
(1.99769 0.000564668 -2.06802e-22)
(1.99728 0.000908261 -1.23073e-21)
(1.99685 0.00132605 -1.24937e-21)
(1.9964 0.00182418 5.17426e-25)
(1.99593 0.00240937 1.04675e-22)
(1.99546 0.00308863 3.22713e-22)
(1.99499 0.00386403 -1.30004e-21)
(1.99454 0.0047401 -1.38529e-21)
(1.99413 0.00571483 -4.35072e-22)
(1.99378 0.00678227 0)
(1.99349 0.00793406 -2.19807e-22)
(1.9933 0.00915596 2.0068e-24)
(1.99322 0.0104278 2.1756e-22)
(1.99326 0.0117242 1.08524e-22)
(1.99345 0.0130154 0)
(1.99377 0.0142677 2.04634e-22)
(1.99424 0.0154481 -2.89342e-22)
(1.99484 0.0165212 9.34861e-23)
(1.99556 0.0174552 -1.65928e-22)
(1.99637 0.0182261 2.38215e-22)
(1.99725 0.0188158 -1.26051e-23)
(1.99817 0.019214 -7.44395e-23)
(1.9991 0.0194179 6.02801e-23)
(2.00002 0.0194322 0)
(2.0009 0.0192675 0)
(2.00172 0.0189389 -3.43845e-23)
(2.00248 0.0184648 7.7125e-23)
(2.00316 0.0178651 2.96659e-23)
(2.00375 0.0171601 2.12241e-24)
(2.00427 0.0163695 -3.34811e-23)
(2.0047 0.0155118 -2.93173e-23)
(2.00505 0.0146034 1.01207e-22)
(2.00534 0.013659 -4.75212e-23)
(2.00556 0.0126908 -3.54896e-24)
(2.00573 0.0117111 -1.45582e-23)
(2.00585 0.0107246 5.26616e-23)
(2.00593 0.00974135 1.40143e-23)
(2.00598 0.00876265 0)
(2.006 0.00779427 1.38378e-23)
(2.00601 0.00683743 -1.3845e-23)
(2.006 0.00589304 0)
(2.00598 0.00496125 -1.82383e-23)
(2.00596 0.00404108 1.82459e-23)
(2.00594 0.00313145 0)
(2.00592 0.00223016 0)
(2.00591 0.0013355 0)
(2.00591 0.00044444 0)
(2.0003 -5.15683e-05 0)
(2.00027 -0.000152442 0)
(2.00021 -0.000247789 0)
(2.00013 -0.000334113 0)
(2.00001 -0.000407501 0)
(1.99986 -0.000463927 0)
(1.99967 -0.000498996 -9.48659e-23)
(1.99946 -0.000508039 -8.51676e-25)
(1.9992 -0.000485916 -9.76788e-23)
(1.99892 -0.000427066 9.56503e-23)
(1.99859 -0.000325279 -1.00209e-22)
(1.99822 -0.000174107 1.98075e-22)
(1.99782 3.4186e-05 -2.03462e-22)
(1.99737 0.000307191 -2.94728e-24)
(1.9969 0.000653147 1.86927e-21)
(1.99638 0.00108147 -4.25057e-22)
(1.99584 0.00160038 -8.6304e-22)
(1.99528 0.00221817 -1.12249e-22)
(1.9947 0.00294458 -5.90403e-24)
(1.99413 0.00378465 1.34679e-21)
(1.99357 0.00474437 -9.82535e-23)
(1.99306 0.00582534 -2.27979e-22)
(1.9926 0.00702107 3.44491e-22)
(1.99223 0.00832479 1.16782e-22)
(1.99197 0.00972088 0)
(1.99184 0.0111864 1.15535e-22)
(1.99187 0.0126909 -1.08552e-22)
(1.99207 0.014198 2.13029e-22)
(1.99246 0.0156656 -3.14854e-22)
(1.99302 0.0170519 2.93885e-22)
(1.99376 0.0183117 -9.76455e-23)
(1.99464 0.0194047 1.72225e-22)
(1.99564 0.0203007 -9.06606e-23)
(1.99672 0.0209775 2.22041e-22)
(1.99785 0.0214232 -1.44077e-23)
(1.99899 0.0216362 -1.92086e-22)
(2.00011 0.0216243 -1.01063e-22)
(2.00118 0.0214025 1.01021e-22)
(2.00217 0.0209916 0)
(2.00307 0.0204156 3.39776e-23)
(2.00387 0.0197001 -2.57156e-23)
(2.00456 0.0188703 -1.70804e-23)
(2.00515 0.0179502 5.60449e-24)
(2.00564 0.0169618 0)
(2.00604 0.0159243 6.14991e-24)
(2.00636 0.0148553 5.18488e-24)
(2.00659 0.0137679 2.52889e-23)
(2.00677 0.0126742 8.22668e-24)
(2.00689 0.0115803 -1.02715e-23)
(2.00696 0.010497 8.97433e-23)
(2.007 0.00942434 -4.07925e-23)
(2.00701 0.00836862 1.51033e-23)
(2.007 0.00733004 0)
(2.00697 0.00630919 0)
(2.00694 0.00530553 0)
(2.00691 0.00431731 2.23246e-23)
(2.00688 0.00334294 7.26131e-25)
(2.00685 0.00237941 -2.30731e-23)
(2.00684 0.0014243 0)
(2.00683 0.000473838 0)
(2.00041 -6.59534e-05 -9.10377e-23)
(2.00038 -0.000195376 9.13378e-23)
(2.00032 -0.000319247 0)
(2.00022 -0.000434009 -9.22532e-23)
(2.00008 -0.00053571 9.22548e-23)
(1.99992 -0.00062023 0)
(1.99971 -0.000683042 9.43185e-23)
(1.99946 -0.000719261 9.45556e-25)
(1.99918 -0.000723451 -1.91656e-22)
(1.99885 -0.000689681 -9.88148e-23)
(1.99847 -0.000611165 9.62735e-23)
(1.99805 -0.000480746 9.89952e-23)
(1.99758 -0.000289899 0)
(1.99707 -2.96419e-05 0)
(1.99651 0.000309766 -2.03297e-22)
(1.9959 0.000739403 -6.41598e-22)
(1.99526 0.00127026 8.61704e-22)
(1.99459 0.00191251 -6.67255e-22)
(1.99389 0.0026793 -7.71306e-24)
(1.99319 0.00357968 9.36799e-22)
(1.99251 0.00462182 3.19576e-21)
(1.99186 0.00581246 -4.71851e-22)
(1.99128 0.00714531 3.59778e-22)
(1.99079 0.00861639 1.2091e-22)
(1.99044 0.0102092 0)
(1.99025 0.011898 -1.1559e-22)
(1.99025 0.0136465 0)
(1.99047 0.0154101 1.12084e-22)
(1.99091 0.0171355 -4.08185e-24)
(1.99159 0.0187694 -4.26788e-22)
(1.99249 0.0202537 6.03199e-22)
(1.99357 0.0215366 -1.34767e-23)
(1.99479 0.0225795 -1.79345e-22)
(1.99613 0.0233553 2.69141e-24)
(1.99751 0.0238507 -6.13833e-23)
(1.9989 0.0240659 1.94431e-22)
(2.00025 0.0240134 0)
(2.00153 0.0237149 0)
(2.00271 0.0231987 -6.98807e-23)
(2.00377 0.0224964 1.40383e-23)
(2.00471 0.0216405 1.0462e-22)
(2.00551 0.0206625 5.92914e-24)
(2.00618 0.0195916 6.53729e-24)
(2.00673 0.018454 4.16762e-23)
(2.00716 0.0172712 -7.34925e-23)
(2.0075 0.0160643 -2.13039e-23)
(2.00775 0.0148457 -1.73415e-23)
(2.00792 0.0136297 0)
(2.00803 0.0124227 0)
(2.00809 0.0112348 -5.37358e-23)
(2.00811 0.0100657 -1.86352e-23)
(2.0081 0.00892148 1.8645e-23)
(2.00806 0.00780123 0)
(2.00802 0.006705 2.35811e-23)
(2.00797 0.00563134 -2.3593e-23)
(2.00792 0.0045777 0)
(2.00788 0.00354161 0)
(2.00784 0.00251922 -2.68577e-23)
(2.00782 0.00150729 2.68714e-23)
(2.0078 0.000501294 0)
(2.00056 -8.24287e-05 0)
(2.00052 -0.000244579 0)
(2.00045 -0.000401248 9.09241e-23)
(2.00034 -0.000548916 -9.09225e-23)
(2.00019 -0.000683653 0)
(2 -0.000801303 0)
(1.99977 -0.000897317 -9.36314e-23)
(1.9995 -0.000966657 -1.03777e-24)
(1.99918 -0.00100368 1.90578e-22)
(1.9988 -0.00100216 -9.59032e-23)
(1.99838 -0.000954811 -1.97577e-22)
(1.9979 -0.000853815 9.61398e-23)
(1.99737 -0.000689828 2.01068e-22)
(1.99678 -0.000452575 -2.08818e-22)
(1.99613 -0.000130595 -1.27078e-21)
(1.99542 0.000288989 2.1313e-22)
(1.99467 0.000820219 -4.44932e-22)
(1.99387 0.0014758 1.01123e-21)
(1.99304 0.00227292 -4.54718e-22)
(1.99219 0.00322561 -9.26926e-22)
(1.99135 0.00434539 -3.8542e-21)
(1.99054 0.00564603 7.8073e-21)
(1.9898 0.007125 -2.41975e-22)
(1.98917 0.00877969 0)
(1.98868 0.0105948 0)
(1.9884 0.0125422 0)
(1.98835 0.0145789 0)
(1.98858 0.0166498 1.12906e-22)