/*--------------------------------*- C++ -*----------------------------------*\
  =========                 |
  \\      /  F ield         | OpenFOAM: The Open Source CFD Toolbox
   \\    /   O peration     | Website:  https://openfoam.org
    \\  /    A nd           | Version:  12
     \\/     M anipulation  |
\*---------------------------------------------------------------------------*/
FoamFile
{
    format      ascii;
    class       volScalarField;
    location    "160";
    object      k;
}
// * * * * * * * * * * * * * * * * * * * * * * * * * * * * * * * * * * * * * //

dimensions      [0 2 -2 0 0 0 0];

internalField   nonuniform List<scalar> 
16227
(
0.00914646
0.00914648
0.00914647
0.00914651
0.0091465
0.00914654
0.00914653
0.00914651
0.00914651
0.00914653
0.00914657
0.00914659
0.00914665
0.00914665
0.00914665
0.00914665
0.00914665
0.00914665
0.00914665
0.00914665
0.00914665
0.00914665
0.00914665
0.00914665
0.00914665
0.00914665
0.00914665
0.00914666
0.00914667
0.00914664
0.00914665
0.00914664
0.00914665
0.00914665
0.00914665
0.00914665
0.00914665
0.00914665
0.00914665
0.00914665
0.00914665
0.00914665
0.00914665
0.00914665
0.00914665
0.00914665
0.00914665
0.00914663
0.00914662
0.00914662
0.00914662
0.00914661
0.00914654
0.00914654
0.00914649
0.00914649
0.00914651
0.00914649
0.00914647
0.00914646
0.00848122
0.00848124
0.00848123
0.00848126
0.00848127
0.0084813
0.00848129
0.00848127
0.00848128
0.00848129
0.00848134
0.00848136
0.00848151
0.00848157
0.00848158
0.00848158
0.00848158
0.00848158
0.00848158
0.00848158
0.00848159
0.00848161
0.00848161
0.00848161
0.0084816
0.00848161
0.0084816
0.0084816
0.00848158
0.00848153
0.00848158
0.0084816
0.0084816
0.0084816
0.0084816
0.00848159
0.00848158
0.00848158
0.00848158
0.00848158
0.00848158
0.00848158
0.00848158
0.00848157
0.00848157
0.00848156
0.00848156
0.00848156
0.00848156
0.00848155
0.00848152
0.00848147
0.00848135
0.00848133
0.0084813
0.00848128
0.00848131
0.00848123
0.00848125
0.00848122
0.00790074
0.00790076
0.00790077
0.00790078
0.00790077
0.00790087
0.00790082
0.00790081
0.00790082
0.00790083
0.00790087
0.00790089
0.00790114
0.0079012
0.00790121
0.00790122
0.00790122
0.00790122
0.00790124
0.00790119
0.00790122
0.00790123
0.00790123
0.00790122
0.00790122
0.00790122
0.00790122
0.00790122
0.00790121
0.00790114
0.0079012
0.00790121
0.00790121
0.00790122
0.00790122
0.00790122
0.00790122
0.00790122
0.00790121
0.00790121
0.00790121
0.00790122
0.00790121
0.0079012
0.0079012
0.00790121
0.0079012
0.0079012
0.00790119
0.00790117
0.00790113
0.00790094
0.00790086
0.00790085
0.00790083
0.00790083
0.00790086
0.00790077
0.00790078
0.00790076
0.00739023
0.00739025
0.00739025
0.00739027
0.00739027
0.00739034
0.00739034
0.00739031
0.00739031
0.00739031
0.00739035
0.00739041
0.00739068
0.00739075
0.00739077
0.00739078
0.00739079
0.0073908
0.00739074
0.0073906
0.00739072
0.00739075
0.00739075
0.00739075
0.00739075
0.00739075
0.00739074
0.00739073
0.00739071
0.00739062
0.0073907
0.00739072
0.00739071
0.00739072
0.00739072
0.00739073
0.00739074
0.00739073
0.00739074
0.00739074
0.00739075
0.00739075
0.00739075
0.00739076
0.00739075
0.00739075
0.00739076
0.00739075
0.00739076
0.00739073
0.00739062
0.00739042
0.00739033
0.00739035
0.00739035
0.00739037
0.00739034
0.00739027
0.00739027
0.00739025
0.00693809
0.0069381
0.00693811
0.00693813
0.00693813
0.00693819
0.00693822
0.00693816
0.00693817
0.00693817
0.00693821
0.00693826
0.00693851
0.00693864
0.00693866
0.00693865
0.00693866
0.00693863
0.00693841
0.00693834
0.00693853
0.00693859
0.00693859
0.00693857
0.00693855
0.00693854
0.00693853
0.00693853
0.0069385
0.0069384
0.00693848
0.00693851
0.00693852
0.00693852
0.00693852
0.00693853
0.00693855
0.00693856
0.00693857
0.00693858
0.0069386
0.00693861
0.00693861
0.00693862
0.00693863
0.00693864
0.00693864
0.00693865
0.00693865
0.00693857
0.00693833
0.00693822
0.00693815
0.00693818
0.00693821
0.00693825
0.00693819
0.00693812
0.00693812
0.00693811
0.00653511
0.00653513
0.00653512
0.00653514
0.00653514
0.00653519
0.00653523
0.00653518
0.00653516
0.00653515
0.00653516
0.00653519
0.00653531
0.00653559
0.00653565
0.00653566
0.00653566
0.00653555
0.0065353
0.00653526
0.00653547
0.00653552
0.0065355
0.00653547
0.00653545
0.00653544
0.00653542
0.0065354
0.00653536
0.00653526
0.00653535
0.00653537
0.00653539
0.0065354
0.00653542
0.00653543
0.00653546
0.00653548
0.0065355
0.00653552
0.00653554
0.00653556
0.00653558
0.00653561
0.00653562
0.00653563
0.00653565
0.00653566
0.00653566
0.00653553
0.00653529
0.00653518
0.00653515
0.0065352
0.00653525
0.00653524
0.00653519
0.00653513
0.00653513
0.00653512
0.00617388
0.0061739
0.0061739
0.00617391
0.00617391
0.00617395
0.00617398
0.00617397
0.00617392
0.00617391
0.00617389
0.00617389
0.00617399
0.00617425
0.00617437
0.00617439
0.00617435
0.00617404
0.00617391
0.0061739
0.00617411
0.00617414
0.00617411
0.00617407
0.00617404
0.00617401
0.00617398
0.00617396
0.00617393
0.00617381
0.0061739
0.00617394
0.00617395
0.00617397
0.006174
0.00617403
0.00617406
0.0061741
0.00617414
0.00617418
0.00617421
0.00617425
0.00617428
0.00617431
0.00617435
0.00617437
0.00617439
0.00617441
0.00617435
0.00617409
0.00617397
0.00617389
0.0061739
0.00617398
0.00617399
0.00617399
0.00617395
0.00617389
0.0061739
0.00617388
0.00584842
0.00584842
0.00584842
0.00584844
0.00584842
0.00584845
0.00584849
0.00584848
0.00584843
0.00584839
0.00584836
0.00584832
0.00584835
0.00584848
0.00584876
0.00584883
0.00584875
0.00584839
0.00584827
0.00584825
0.00584846
0.00584848
0.00584842
0.00584837
0.00584832
0.00584828
0.00584824
0.00584821
0.00584815
0.00584804
0.00584814
0.00584818
0.00584821
0.00584824
0.00584828
0.00584832
0.00584837
0.00584842
0.00584848
0.00584854
0.0058486
0.00584864
0.0058487
0.00584875
0.0058488
0.00584883
0.00584886
0.00584888
0.00584876
0.00584852
0.00584841
0.00584838
0.00584844
0.00584849
0.00584849
0.00584849
0.00584845
0.00584841
0.00584842
0.0058484
0.00555378
0.00555378
0.00555378
0.00555378
0.00555377
0.00555379
0.00555382
0.0055538
0.00555378
0.00555371
0.00555366
0.00555359
0.00555359
0.00555367
0.00555399
0.00555407
0.0055539
0.00555356
0.00555344
0.00555339
0.00555359
0.00555358
0.0055535
0.00555343
0.00555336
0.00555331
0.00555325
0.00555321
0.00555316
0.00555303
0.00555314
0.00555318
0.00555322
0.00555327
0.00555332
0.00555339
0.00555346
0.00555354
0.00555361
0.00555369
0.00555377
0.00555385
0.00555392
0.00555398
0.00555404
0.00555411
0.00555414
0.0055541
0.00555385
0.00555374
0.00555368
0.00555373
0.00555376
0.00555381
0.00555382
0.00555382
0.0055538
0.00555375
0.00555376
0.00555376
0.00528589
0.00528589
0.00528588
0.00528589
0.00528587
0.00528588
0.0052859
0.00528587
0.00528584
0.0052858
0.00528571
0.00528562
0.00528561
0.00528568
0.00528593
0.00528599
0.00528565
0.00528542
0.00528531
0.00528526
0.00528542
0.0052854
0.0052853
0.0052852
0.00528511
0.00528503
0.00528497
0.00528491
0.00528485
0.00528473
0.00528484
0.00528489
0.00528494
0.005285
0.00528508
0.00528516
0.00528526
0.00528536
0.00528547
0.00528557
0.00528567
0.00528577
0.00528588
0.00528596
0.00528605
0.00528612
0.00528617
0.0052861
0.00528585
0.00528576
0.00528577
0.0052858
0.00528584
0.00528589
0.0052859
0.00528592
0.00528589
0.00528586
0.00528586
0.00528586
0.00504136
0.00504136
0.00504135
0.00504134
0.00504133
0.00504133
0.00504133
0.00504129
0.00504125
0.0050412
0.00504113
0.005041
0.00504092
0.00504093
0.00504101
0.00504118
0.00504085
0.00504065
0.00504053
0.00504045
0.00504052
0.00504051
0.0050404
0.00504027
0.00504016
0.00504006
0.00503997
0.00503991
0.00503985
0.00503971
0.00503983
0.0050399
0.00503996
0.00504004
0.00504014
0.00504026
0.00504038
0.00504051
0.00504065
0.00504079
0.00504092
0.00504105
0.00504118
0.00504128
0.00504139
0.00504147
0.00504146
0.00504135
0.00504122
0.00504117
0.00504119
0.00504123
0.00504128
0.00504134
0.00504136
0.00504137
0.00504135
0.00504132
0.00504133
0.00504133
0.00481733
0.00481733
0.00481732
0.00481731
0.00481729
0.00481729
0.00481727
0.00481723
0.00481717
0.0048171
0.00481702
0.0048169
0.00481677
0.00481672
0.00481674
0.00481686
0.00481659
0.00481638
0.0048162
0.00481608
0.00481599
0.00481605
0.00481595
0.0048158
0.00481565
0.00481553
0.00481543
0.00481535
0.00481528
0.00481515
0.00481527
0.00481535
0.00481543
0.00481554
0.00481567
0.00481581
0.00481597
0.00481614
0.00481631
0.00481648
0.00481665
0.00481681
0.00481696
0.00481711
0.00481722
0.00481728
0.00481719
0.00481717
0.00481712
0.00481709
0.00481713
0.00481718
0.00481723
0.00481729
0.00481732
0.00481734
0.00481732
0.00481729
0.00481731
0.00481731
0.0046114
0.0046114
0.00461139
0.00461137
0.00461135
0.00461133
0.0046113
0.00461126
0.00461118
0.0046111
0.00461101
0.00461087
0.00461073
0.00461058
0.0046105
0.00461044
0.00461034
0.00461017
0.00460996
0.00460979
0.00460962
0.00460969
0.00460956
0.00460938
0.0046092
0.00460905
0.00460893
0.00460883
0.00460875
0.00460862
0.00460875
0.00460884
0.00460895
0.00460909
0.00460925
0.00460943
0.00460963
0.00460983
0.00461005
0.00461026
0.00461047
0.00461067
0.00461085
0.00461102
0.00461114
0.00461119
0.00461113
0.00461116
0.00461112
0.00461111
0.00461116
0.00461123
0.00461129
0.00461134
0.00461138
0.0046114
0.00461139
0.00461137
0.00461138
0.00461138
0.00442151
0.00442152
0.0044215
0.00442147
0.00442144
0.00442142
0.00442138
0.00442132
0.00442123
0.00442114
0.00442102
0.00442087
0.00442071
0.00442055
0.00442037
0.00442026
0.00442018
0.00441999
0.00441975
0.00441953
0.00441931
0.00441934
0.00441917
0.00441894
0.00441873
0.00441855
0.0044184
0.00441829
0.0044182
0.00441808
0.00441821
0.00441833
0.00441846
0.00441863
0.00441883
0.00441905
0.0044193
0.00441955
0.00441981
0.00442007
0.00442031
0.00442055
0.00442077
0.00442095
0.00442104
0.00442107
0.00442112
0.00442117
0.00442117
0.00442119
0.00442125
0.00442132
0.00442139
0.00442144
0.00442149
0.00442151
0.0044215
0.00442149
0.00442151
0.0044215
0.0042459
0.00424591
0.00424589
0.00424586
0.00424582
0.00424579
0.00424574
0.00424566
0.00424557
0.00424545
0.00424532
0.00424515
0.00424497
0.00424477
0.00424458
0.00424443
0.00424431
0.00424408
0.00424379
0.00424352
0.00424326
0.00424323
0.00424302
0.00424275
0.0042425
0.00424228
0.00424211
0.00424198
0.00424187
0.00424175
0.0042419
0.00424204
0.0042422
0.00424241
0.00424266
0.00424293
0.00424322
0.00424354
0.00424384
0.00424415
0.00424444
0.00424472
0.00424497
0.00424514
0.00424517
0.00424529
0.00424539
0.00424548
0.00424551
0.00424555
0.00424563
0.00424571
0.00424577
0.00424584
0.00424588
0.00424591
0.00424591
0.0042459
0.00424591
0.00424591
0.00408307
0.00408307
0.00408304
0.00408301
0.00408297
0.00408293
0.00408287
0.00408278
0.00408267
0.00408254
0.00408238
0.00408219
0.00408199
0.00408177
0.00408154
0.00408136
0.00408119
0.00408092
0.00408058
0.00408026
0.00407996
0.00407981
0.00407959
0.00407928
0.00407898
0.00407873
0.00407852
0.00407837
0.00407825
0.00407813
0.0040783
0.00407846
0.00407866
0.00407892
0.00407921
0.00407955
0.0040799
0.00408027
0.00408064
0.00408099
0.00408134
0.00408166
0.00408194
0.00408211
0.00408218
0.00408232
0.00408246
0.00408253
0.0040826
0.00408268
0.00408279
0.00408287
0.00408294
0.00408301
0.00408306
0.00408308
0.00408308
0.00408308
0.00408309
0.00408309
0.00393169
0.00393169
0.00393166
0.00393162
0.00393158
0.00393153
0.00393146
0.00393135
0.00393123
0.00393109
0.00393092
0.0039307
0.00393047
0.00393022
0.00392996
0.00392974
0.00392954
0.0039292
0.00392883
0.00392843
0.00392806
0.00392773
0.00392755
0.00392723
0.00392688
0.00392658
0.00392633
0.00392616
0.00392603
0.00392592
0.00392609
0.00392629
0.00392654
0.00392684
0.0039272
0.0039276
0.00392803
0.00392845
0.00392888
0.0039293
0.0039297
0.00393006
0.00393031
0.00393047
0.00393066
0.00393085
0.00393102
0.0039311
0.00393119
0.00393131
0.00393141
0.0039315
0.00393158
0.00393165
0.0039317
0.00393172
0.00393173
0.00393172
0.00393174
0.00393174
0.00379063
0.00379063
0.0037906
0.00379056
0.0037905
0.00379045
0.00379037
0.00379025
0.00379012
0.00378996
0.00378976
0.00378953
0.00378927
0.003789
0.0037887
0.00378843
0.00378818
0.00378782
0.00378738
0.00378692
0.00378647
0.00378604
0.00378583
0.00378546
0.00378505
0.0037847
0.00378441
0.0037842
0.00378406
0.00378396
0.00378415
0.00378439
0.00378468
0.00378505
0.00378548
0.00378595
0.00378645
0.00378695
0.00378746
0.00378794
0.00378839
0.00378876
0.00378896
0.00378922
0.00378948
0.00378973
0.00378991
0.00379002
0.00379013
0.00379026
0.00379038
0.00379047
0.00379054
0.00379062
0.00379067
0.00379069
0.00379069
0.0037907
0.0037907
0.00379071
0.0036589
0.0036589
0.00365887
0.00365882
0.00365876
0.00365869
0.00365861
0.00365848
0.00365834
0.00365816
0.00365795
0.00365769
0.00365741
0.0036571
0.00365677
0.00365646
0.00365615
0.00365574
0.00365526
0.00365473
0.00365421
0.00365371
0.00365338
0.00365297
0.00365251
0.00365209
0.00365175
0.00365151
0.00365136
0.00365125
0.00365147
0.00365175
0.00365211
0.00365255
0.00365306
0.00365362
0.0036542
0.00365479
0.00365536
0.00365591
0.00365641
0.00365681
0.00365706
0.00365738
0.00365769
0.00365795
0.00365812
0.00365826
0.00365841
0.00365856
0.00365868
0.00365877
0.00365885
0.00365892
0.00365896
0.00365899
0.00365899
0.003659
0.003659
0.00365901
0.00353563
0.00353562
0.00353559
0.00353554
0.00353547
0.0035354
0.00353531
0.00353517
0.00353501
0.00353481
0.00353459
0.00353431
0.003534
0.00353366
0.0035333
0.00353293
0.00353257
0.00353212
0.00353158
0.003531
0.00353039
0.0035298
0.00352925
0.00352887
0.00352837
0.00352788
0.00352749
0.00352721
0.00352704
0.00352695
0.0035272
0.00352753
0.00352795
0.00352848
0.00352908
0.00352973
0.00353041
0.00353108
0.00353172
0.00353229
0.00353282
0.00353325
0.00353364
0.00353403
0.00353438
0.00353465
0.00353483
0.003535
0.00353518
0.00353533
0.00353545
0.00353554
0.00353562
0.00353568
0.00353573
0.00353575
0.00353575
0.00353575
0.00353576
0.00353577
0.00342004
0.00342003
0.00342
0.00341995
0.00341987
0.00341979
0.00341969
0.00341954
0.00341937
0.00341916
0.00341892
0.00341862
0.00341829
0.00341792
0.00341751
0.00341707
0.00341664
0.00341617
0.00341559
0.00341495
0.00341427
0.00341358
0.00341292
0.00341247
0.0034119
0.00341133
0.00341087
0.00341054
0.00341035
0.00341026
0.00341055
0.00341094
0.00341145
0.00341207
0.00341278
0.00341354
0.00341431
0.00341506
0.00341577
0.00341643
0.00341695
0.00341747
0.00341797
0.00341841
0.00341878
0.00341903
0.00341925
0.00341946
0.00341965
0.0034198
0.00341992
0.00342001
0.00342008
0.00342014
0.00342018
0.0034202
0.0034202
0.0034202
0.0034202
0.00342021
0.00331145
0.00331145
0.00331141
0.00331136
0.00331128
0.0033112
0.00331108
0.00331093
0.00331075
0.00331053
0.00331027
0.00330996
0.00330961
0.00330921
0.00330876
0.00330827
0.00330778
0.00330727
0.00330664
0.00330592
0.00330517
0.0033044
0.00330364
0.00330307
0.00330242
0.00330176
0.00330122
0.00330084
0.00330063
0.00330055
0.00330087
0.00330133
0.00330194
0.00330268
0.0033035
0.00330437
0.00330523
0.00330607
0.00330688
0.00330763
0.00330823
0.00330882
0.00330938
0.00330986
0.00331023
0.0033105
0.00331073
0.00331096
0.00331115
0.00331129
0.00331141
0.0033115
0.00331156
0.00331162
0.00331164
0.00331166
0.00331166
0.00331165
0.00331166
0.00331166
0.00320928
0.00320927
0.00320924
0.00320918
0.0032091
0.00320901
0.00320889
0.00320873
0.00320854
0.00320831
0.00320803
0.0032077
0.00320734
0.00320691
0.00320643
0.00320591
0.00320536
0.00320479
0.00320411
0.00320334
0.0032025
0.00320163
0.00320079
0.00320003
0.00319942
0.00319865
0.00319802
0.00319758
0.00319736
0.00319729
0.00319768
0.00319825
0.00319897
0.00319982
0.00320076
0.00320175
0.00320259
0.00320353
0.00320439
0.00320522
0.00320597
0.00320665
0.00320725
0.00320772
0.00320809
0.00320839
0.00320866
0.00320889
0.00320908
0.00320922
0.00320932
0.0032094
0.00320946
0.0032095
0.00320952
0.00320953
0.00320952
0.00320951
0.00320951
0.00320951
0.00311297
0.00311297
0.00311293
0.00311287
0.00311279
0.00311269
0.00311257
0.00311241
0.00311221
0.00311197
0.00311168
0.00311134
0.00311095
0.00311051
0.00311
0.00310943
0.00310881
0.00310816
0.00310746
0.00310665
0.00310574
0.00310479
0.00310385
0.00310337
0.00314925
0.00314848
0.00314778
0.0031473
0.00314707
0.00314704
0.00314747
0.00314811
0.00314891
0.00314983
0.00315084
0.00315188
0.00310651
0.00310695
0.00310793
0.00310886
0.0031097
0.00311044
0.00311105
0.00311151
0.00311188
0.00311222
0.0031125
0.00311273
0.0031129
0.00311303
0.00311312
0.00311319
0.00311322
0.00311326
0.00311327
0.00311327
0.00311326
0.00311324
0.00311323
0.00311324
0.00302205
0.00302205
0.00302201
0.00302195
0.00302187
0.00302177
0.00302165
0.00302148
0.00302127
0.00302103
0.00302073
0.00302038
0.00301998
0.00301952
0.00301899
0.00301838
0.00301771
0.00301699
0.00301622
0.0030154
0.00301444
0.00301342
0.0030128
0.00305612
0.00305342
0.00305271
0.0030519
0.00305135
0.00305112
0.00305115
0.0030517
0.00305248
0.00305342
0.00305449
0.0030556
0.00305668
0.00305955
0.00301651
0.00301708
0.00301807
0.00301896
0.00301972
0.00302032
0.00302078
0.00302117
0.0030215
0.00302178
0.00302199
0.00302214
0.00302225
0.00302232
0.00302237
0.00302239
0.00302241
0.00302241
0.0030224
0.00302237
0.00302236
0.00302234
0.00302234
0.0029361
0.00293609
0.00293606
0.00293599
0.00293591
0.00293581
0.00293569
0.00293552
0.00293531
0.00293506
0.00293476
0.0029344
0.00293399
0.00293352
0.00293297
0.00293234
0.00293164
0.00293086
0.00293005
0.00292918
0.00292818
0.00292713
0.00292685
0.00296585
0.00296319
0.00298432
0.00298344
0.00298287
0.00298271
0.00298286
0.00298358
0.00298451
0.00298558
0.00298673
0.00298788
0.0029675
0.00296999
0.00293118
0.00293142
0.00293243
0.00293332
0.00293405
0.00293462
0.00293509
0.00293548
0.00293581
0.00293606
0.00293624
0.00293637
0.00293645
0.0029365
0.00293652
0.00293653
0.00293652
0.00293651
0.00293648
0.00293645
0.00293642
0.00293641
0.00293641
0.00285472
0.00285471
0.00285468
0.00285462
0.00285454
0.00285444
0.00285431
0.00285414
0.00285394
0.00285369
0.00285339
0.00285302
0.0028526
0.00285212
0.00285157
0.00285092
0.0028502
0.00284939
0.00284851
0.00284758
0.00284658
0.00284557
0.00284577
0.00288074
0.00287803
0.00289763
0.00289647
0.00289601
0.00289614
0.00289671
0.00289769
0.00289883
0.00290003
0.00290124
0.00290232
0.00288397
0.00288584
0.00285081
0.00285064
0.00285158
0.0028524
0.00285307
0.00285362
0.00285408
0.00285446
0.00285474
0.00285495
0.0028551
0.00285519
0.00285524
0.00285526
0.00285526
0.00285524
0.00285522
0.00285518
0.00285515
0.0028551
0.00285506
0.00285505
0.00285504
0.00277758
0.00277757
0.00277753
0.00277748
0.00277739
0.0027773
0.00277717
0.00277701
0.0027768
0.00277655
0.00277626
0.00277589
0.00277548
0.00277499
0.00277443
0.00277378
0.00277305
0.00277223
0.00277131
0.00277033
0.00276931
0.00276842
0.00276923
0.00280057
0.00279782
0.00281666
0.00281496
0.00281522
0.00281623
0.00281754
0.00281885
0.0028199
0.00282086
0.00282184
0.00282294
0.00280555
0.00280716
0.0027752
0.00277445
0.00277522
0.00277591
0.0027765
0.002777
0.00277742
0.00277774
0.00277796
0.00277812
0.00277822
0.00277827
0.00277828
0.00277826
0.00277823
0.00277818
0.00277813
0.00277808
0.00277803
0.00277798
0.00277793
0.0027779
0.0027779
0.00270434
0.00270434
0.0027043
0.00270425
0.00270417
0.00270408
0.00270396
0.0027038
0.00270359
0.00270335
0.00270306
0.0027027
0.00270229
0.00270181
0.00270125
0.00270061
0.00269988
0.00269906
0.00269814
0.00269715
0.00269613
0.00269539
0.00269688
0.00272498
0.00272274
0.00274141
0.00273921
0.00274212
0.00274608
0.00274966
0.00275128
0.00275102
0.00275021
0.00274981
0.00275025
0.0027328
0.00273391
0.0027042
0.00270262
0.00270306
0.00270358
0.00270406
0.00270446
0.00270478
0.00270501
0.00270516
0.00270525
0.00270528
0.00270528
0.00270524
0.00270519
0.00270511
0.00270504
0.00270497
0.00270489
0.00270482
0.00270475
0.0027047
0.00270467
0.00270465
0.00263474
0.00263474
0.0026347
0.00263466
0.00263458
0.00263449
0.00263438
0.00263422
0.00263403
0.0026338
0.00263352
0.00263317
0.00263277
0.0026323
0.00263175
0.00263112
0.0026304
0.0026296
0.00262871
0.00262775
0.0026268
0.00262624
0.00262836
0.00265365
0.00265293
0.00267174
0.00267164
0.0026821
0.0026968
0.00270919
0.00271073
0.00270309
0.00269402
0.00268801
0.00268517
0.00266626
0.00266602
0.00263779
0.00263507
0.00263499
0.00263522
0.00263547
0.0026357
0.00263587
0.00263598
0.00263603
0.00263604
0.002636
0.00263593
0.00263585
0.00263574
0.00263563
0.00263552
0.00263542
0.00263532
0.00263524
0.00263515
0.00263509
0.00263505
0.00263504
0.00256852
0.00256852
0.00256848
0.00256844
0.00256837
0.00256829
0.00256818
0.00256804
0.00256786
0.00256764
0.00256736
0.00256703
0.00256665
0.00256619
0.00256566
0.00256505
0.00256436
0.00256359
0.00256274
0.00256183
0.00256101
0.00256068
0.00256325
0.00258626
0.00258844
0.00260891
0.00261815
0.00265394
0.00271645
0.00277695
0.00277325
0.00271878
0.00266994
0.00264255
0.00262952
0.00260674
0.0026035
0.00257596
0.00257169
0.00257075
0.00257054
0.00257046
0.00257045
0.00257043
0.0025704
0.00257033
0.00257023
0.00257011
0.00256997
0.00256983
0.00256967
0.00256952
0.00256937
0.00256925
0.00256912
0.00256901
0.00256891
0.00256884
0.00256879
0.00256878
0.00250544
0.00250543
0.0025054
0.00250536
0.0025053
0.00250523
0.00250513
0.002505
0.00250483
0.00250463
0.00250437
0.00250406
0.00250369
0.00250326
0.00250276
0.00250218
0.00250152
0.00250078
0.00249999
0.00249915
0.00249849
0.00249835
0.00250124
0.00252268
0.00252896
0.00255577
0.00259466
0.00272637
0.00290262
0.00303932
0.00302234
0.00288653
0.00273067
0.00262605
0.00258611
0.00255445
0.00254636
0.00251873
0.00251233
0.0025101
0.00250929
0.00250878
0.00250846
0.00250822
0.002508
0.00250779
0.00250758
0.00250737
0.00250716
0.00250694
0.00250674
0.00250654
0.00250636
0.00250619
0.00250605
0.00250592
0.0025058
0.00250572
0.00250566
0.00250564
0.00244528
0.00244528
0.00244525
0.00244522
0.00244517
0.0024451
0.00244501
0.00244489
0.00244474
0.00244456
0.00244432
0.00244403
0.00244369
0.00244329
0.00244282
0.00244228
0.00244166
0.00244097
0.00244022
0.00243945
0.00243893
0.00243888
0.00244193
0.0024627
0.00247447
0.00251646
0.00263136
0.00292586
0.00330999
0.00414883
0.0039992
0.00329722
0.0028874
0.00265872
0.00255743
0.00250904
0.00249461
0.00246565
0.00245671
0.00245277
0.0024512
0.00245016
0.00244949
0.00244898
0.00244856
0.00244819
0.00244786
0.00244755
0.00244725
0.00244697
0.00244671
0.00244646
0.00244624
0.00244605
0.00244588
0.00244573
0.0024456
0.0024455
0.00244544
0.00244542
0.00238785
0.00238785
0.00238783
0.0023878
0.00238776
0.00238771
0.00238763
0.00238753
0.0023874
0.00238723
0.00238702
0.00238676
0.00238645
0.00238608
0.00238565
0.00238515
0.00238458
0.00238393
0.00238324
0.00238251
0.00238209
0.00238201
0.00238509
0.00240554
0.00242385
0.0024906
0.00273648
0.00326414
0.00455981
0.00514351
0.00310264
0.00274269
0.00254477
0.00246833
0.00244752
0.00241611
0.00240445
0.00239844
0.00239601
0.00239436
0.00239328
0.00239247
0.00239183
0.0023913
0.00239083
0.00239042
0.00239004
0.00238969
0.00238937
0.00238909
0.00238883
0.00238861
0.00238841
0.00238824
0.0023881
0.002388
0.00238793
0.00238791
0.00233298
0.00233298
0.00233296
0.00233294
0.00233291
0.00233287
0.00233281
0.00233272
0.00233261
0.00233247
0.00233229
0.00233206
0.00233178
0.00233146
0.00233107
0.00233062
0.0023301
0.00232951
0.00232886
0.00232815
0.00232775
0.00232758
0.00233053
0.00235035
0.0023753
0.00246452
0.00284209
0.00364159
0.0142836
0.0285684
0.0196938
0.00339272
0.00284149
0.00254601
0.00242932
0.00240441
0.0023693
0.00235512
0.00234689
0.00234352
0.00234119
0.00233967
0.00233855
0.00233768
0.00233697
0.00233637
0.00233585
0.00233538
0.00233497
0.00233459
0.00233426
0.00233397
0.00233371
0.00233349
0.00233331
0.00233315
0.00233304
0.00233296
0.00233293
0.00228049
0.0022805
0.00228049
0.00228047
0.00228045
0.00228042
0.00228037
0.00228031
0.00228022
0.0022801
0.00227996
0.00227976
0.00227953
0.00227925
0.00227891
0.00227851
0.00227805
0.00227751
0.00227692
0.00227622
0.00227583
0.00227557
0.00227838
0.00229736
0.00232785
0.00242385
0.00294171
0.00415705
0.0187458
0.0660155
0.122595
0.0420736
0.00367361
0.00295157
0.00255998
0.00238877
0.00236463
0.00232425
0.00230812
0.00229775
0.00229343
0.0022904
0.00228844
0.00228699
0.00228589
0.00228501
0.00228427
0.00228364
0.0022831
0.00228261
0.00228218
0.0022818
0.00228147
0.00228119
0.00228094
0.00228074
0.00228057
0.00228045
0.00228036
0.00228033
0.00223024
0.00223025
0.00223025
0.00223024
0.00223023
0.00223021
0.00223019
0.00223014
0.00223008
0.00222999
0.00222987
0.00222972
0.00222953
0.0022293
0.00222902
0.00222868
0.00222829
0.00222781
0.00222727
0.00222661
0.00222628
0.00222598
0.0022293
0.00224854
0.0022821
0.00239573
0.00330289
0.0056931
0.0787689
0.387966
0.336558
0.0571624
0.00427288
0.00312544
0.00259467
0.00234602
0.00232856
0.00228028
0.00226285
0.0022507
0.00224543
0.00224174
0.00223936
0.00223761
0.00223628
0.00223523
0.00223437
0.00223364
0.00223301
0.00223246
0.00223198
0.00223156
0.00223119
0.00223088
0.00223061
0.00223039
0.00223021
0.00223008
0.00222999
0.00222995
0.00218209
0.0021821
0.0021821
0.00218211
0.0021821
0.0021821
0.0021821
0.00218207
0.00218204
0.00218198
0.0021819
0.00218179
0.00218165
0.00218147
0.00218125
0.00218098
0.00218064
0.00218022
0.00217977
0.00217924
0.00217917
0.00217905
0.00218522
0.0022079
0.00225494
0.00250689
0.00551961
0.122871
0.367939
0.340018
0.159479
0.0232384
0.00493311
0.00336209
0.00266022
0.00230767
0.00229705
0.00223717
0.00221886
0.00220547
0.00219928
0.00219501
0.00219224
0.00219021
0.00218869
0.00218749
0.00218651
0.00218568
0.00218498
0.00218437
0.00218385
0.00218339
0.00218299
0.00218265
0.00218236
0.00218213
0.00218193
0.00218179
0.0021817
0.00218165
0.00213592
0.00213592
0.00213593
0.00213594
0.00213596
0.00213597
0.00213598
0.00213598
0.00213597
0.00213595
0.00213591
0.00213584
0.00213575
0.00213562
0.00213545
0.00213522
0.00213496
0.00213468
0.00213441
0.00213412
0.00213443
0.00213517
0.00214827
0.00217931
0.00229855
0.0029712
0.0313119
0.248398
0.130924
0.112797
0.0564714
0.0091152
0.00529596
0.00354685
0.0027362
0.00228293
0.00226842
0.00219516
0.00217586
0.00216183
0.00215473
0.00215001
0.00214691
0.00214465
0.00214296
0.00214163
0.00214054
0.00213964
0.00213888
0.00213822
0.00213765
0.00213715
0.00213673
0.00213637
0.00213606
0.00213581
0.00213561
0.00213545
0.00213536
0.00213531
0.00209159
0.0020916
0.00209162
0.00209163
0.00209166
0.00209169
0.00209172
0.00209175
0.00209176
0.00209178
0.00209177
0.00209175
0.0020917
0.00209159
0.00209148
0.00209137
0.00209126
0.00209116
0.00209108
0.00209108
0.00209189
0.00209461
0.00211914
0.00216454
0.00244499
0.00434813
0.0642181
0.211193
0.0559412
0.0330781
0.0156259
0.00592972
0.005393
0.00363499
0.00276527
0.00227796
0.00223986
0.00215446
0.00213371
0.00211947
0.00211156
0.00210655
0.00210318
0.00210078
0.00209896
0.00209753
0.00209636
0.00209539
0.00209457
0.00209387
0.00209327
0.00209275
0.0020923
0.00209192
0.0020916
0.00209133
0.00209112
0.00209096
0.00209086
0.00209081
0.00204901
0.00204902
0.00204904
0.00204907
0.00204911
0.00204915
0.0020492
0.00204925
0.0020493
0.00204935
0.00204937
0.00204938
0.00204936
0.00204934
0.00204933
0.00204934
0.00204937
0.00204944
0.00204958
0.00204993
0.00205132
0.00205721
0.00209618
0.0021614
0.0026495
0.00642453
0.0690444
0.142088
0.0262555
0.00763415
0.00600889
0.0058648
0.00533682
0.00366832
0.0027427
0.00228913
0.00220903
0.00211571
0.00209246
0.00207822
0.00206974
0.0020646
0.00206101
0.00205848
0.00205657
0.00205507
0.00205385
0.00205283
0.00205197
0.00205123
0.0020506
0.00205005
0.00204958
0.00204919
0.00204885
0.00204858
0.00204836
0.00204819
0.00204809
0.00204804
0.00200807
0.00200808
0.00200811
0.00200815
0.0020082
0.00200826
0.00200833
0.0020084
0.00200848
0.00200854
0.00200858
0.00200863
0.00200869
0.00200876
0.00200886
0.00200898
0.00200913
0.00200939
0.00200977
0.00201045
0.00201248
0.00202236
0.00207618
0.00216204
0.00282596
0.00803883
0.0585387
0.0743931
0.0322259
0.00477685
0.00467083
0.00623027
0.00564053
0.00379797
0.00271765
0.00230413
0.00217578
0.00207876
0.00205219
0.00203807
0.00202917
0.002024
0.0020203
0.00201767
0.00201567
0.00201412
0.00201288
0.00201184
0.00201095
0.00201019
0.00200953
0.00200897
0.00200849
0.00200808
0.00200774
0.00200745
0.00200723
0.00200706
0.00200695
0.00200689
0.00196868
0.0019687
0.00196873
0.00196877
0.00196883
0.00196891
0.001969
0.0019691
0.00196919
0.00196927
0.00196935
0.00196947
0.0019696
0.00196975
0.00196993
0.00197015
0.00197045
0.00197089
0.00197147
0.00197247
0.00197514
0.00198918
0.0020563
0.0021594
0.00292746
0.00870172
0.0459904
0.0471861
0.0290595
0.00700593
0.00779908
0.00738713
0.00797871
0.00446032
0.0027498
0.00230298
0.00214152
0.00204327
0.00201282
0.00199889
0.00198988
0.00198466
0.00198093
0.00197829
0.00197625
0.00197465
0.00197338
0.00197233
0.00197143
0.00197066
0.00196999
0.00196941
0.00196892
0.0019685
0.00196815
0.00196786
0.00196763
0.00196746
0.00196735
0.00196729
0.00193075
0.00193077
0.00193081
0.00193086
0.00193094
0.00193103
0.00193113
0.00193124
0.00193135
0.00193146
0.00193161
0.00193178
0.00193197
0.00193219
0.00193245
0.00193278
0.0019332
0.00193381
0.00193458
0.00193584
0.00193912
0.00195686
0.00203472
0.00214946
0.00295405
0.00868134
0.0353858
0.0363493
0.0234502
0.00757732
0.00862475
0.0112011
0.0157797
0.00695874
0.00289079
0.00226879
0.00210731
0.00200868
0.00197435
0.00196065
0.00195179
0.00194661
0.00194284
0.00194022
0.00193818
0.00193657
0.00193528
0.00193422
0.00193332
0.00193255
0.00193187
0.00193129
0.00193079
0.00193037
0.00193001
0.00192972
0.00192949
0.00192932
0.00192921
0.00192915
0.0018942
0.00189423
0.00189427
0.00189433
0.00189442
0.00189452
0.00189462
0.00189474
0.00189489
0.00189506
0.00189525
0.00189546
0.0018957
0.00189599
0.00189633
0.00189675
0.00189728
0.00189804
0.00189896
0.00190047
0.00190425
0.0019249
0.0020106
0.00213123
0.00293398
0.00845826
0.0275587
0.0281067
0.0237279
0.00991736
0.00547472
0.0108274
0.0201799
0.0140294
0.00314659
0.00221649
0.00207338
0.00197447
0.00193686
0.00192343
0.00191485
0.00190979
0.00190605
0.00190342
0.00190137
0.00189976
0.0018985
0.00189744
0.00189655
0.00189578
0.00189511
0.00189453
0.00189403
0.0018936
0.00189325
0.00189295
0.00189272
0.00189255
0.00189244