/*--------------------------------*- C++ -*----------------------------------*\
  =========                 |
  \\      /  F ield         | OpenFOAM: The Open Source CFD Toolbox
   \\    /   O peration     | Website:  https://openfoam.org
    \\  /    A nd           | Version:  12
     \\/     M anipulation  |
\*---------------------------------------------------------------------------*/
FoamFile
{
    format      ascii;
    class       volScalarField;
    location    "160";
    object      nut;
}
// * * * * * * * * * * * * * * * * * * * * * * * * * * * * * * * * * * * * * //

dimensions      [0 2 -1 0 0 0 0];

internalField   nonuniform List<scalar> 
16227
(
0.000978543
0.000978543
0.000978543
0.000978543
0.000978543
0.000978543
0.000978543
0.000978543
0.000978543
0.000978543
0.000978543
0.000978543
0.000978544
0.000978544
0.000978544
0.000978544
0.000978544
0.000978544
0.000978544
0.000978544
0.000978544
0.000978544
0.000978544
0.000978544
0.000978544
0.000978544
0.000978544
0.000978544
0.000978544
0.000978544
0.000978544
0.000978544
0.000978544
0.000978544
0.000978544
0.000978544
0.000978544
0.000978544
0.000978544
0.000978544
0.000978544
0.000978544
0.000978544
0.000978544
0.000978544
0.000978544
0.000978544
0.000978544
0.000978544
0.000978544
0.000978544
0.000978543
0.000978543
0.000978543
0.000978543
0.000978543
0.000978543
0.000978543
0.000978543
0.000978543
0.000972834
0.000972834
0.000972834
0.000972834
0.000972834
0.000972834
0.000972834
0.000972834
0.000972834
0.000972834
0.000972835
0.000972835
0.000972836
0.000972837
0.000972837
0.000972837
0.000972837
0.000972837
0.000972837
0.000972837
0.000972837
0.000972837
0.000972837
0.000972837
0.000972837
0.000972837
0.000972837
0.000972837
0.000972836
0.000972836
0.000972837
0.000972837
0.000972837
0.000972837
0.000972837
0.000972837
0.000972836
0.000972836
0.000972836
0.000972836
0.000972836
0.000972836
0.000972836
0.000972836
0.000972836
0.000972836
0.000972836
0.000972836
0.000972836
0.000972836
0.000972836
0.000972836
0.000972835
0.000972835
0.000972834
0.000972834
0.000972835
0.000972834
0.000972834
0.000972834
0.000967494
0.000967494
0.000967494
0.000967494
0.000967494
0.000967495
0.000967495
0.000967495
0.000967495
0.000967495
0.000967495
0.000967495
0.000967497
0.000967498
0.000967498
0.000967498
0.000967498
0.000967498
0.000967498
0.000967498
0.000967498
0.000967498
0.000967498
0.000967498
0.000967498
0.000967498
0.000967498
0.000967498
0.000967498
0.000967497
0.000967498
0.000967498
0.000967498
0.000967498
0.000967498
0.000967498
0.000967498
0.000967498
0.000967498
0.000967498
0.000967498
0.000967498
0.000967498
0.000967498
0.000967498
0.000967498
0.000967497
0.000967498
0.000967498
0.000967497
0.000967497
0.000967495
0.000967495
0.000967495
0.000967494
0.000967495
0.000967495
0.000967494
0.000967494
0.000967494
0.000962482
0.000962482
0.000962482
0.000962482
0.000962482
0.000962483
0.000962483
0.000962482
0.000962482
0.000962482
0.000962483
0.000962483
0.000962486
0.000962486
0.000962486
0.000962487
0.000962487
0.000962487
0.000962486
0.000962485
0.000962486
0.000962486
0.000962486
0.000962486
0.000962486
0.000962486
0.000962486
0.000962486
0.000962485
0.000962485
0.000962485
0.000962485
0.000962485
0.000962485
0.000962485
0.000962485
0.000962485
0.000962485
0.000962485
0.000962485
0.000962485
0.000962485
0.000962485
0.000962485
0.000962485
0.000962485
0.000962485
0.000962485
0.000962485
0.000962485
0.000962484
0.000962482
0.000962481
0.000962481
0.000962482
0.000962482
0.000962481
0.000962481
0.000962481
0.000962481
0.000957761
0.000957761
0.000957761
0.000957761
0.000957761
0.000957762
0.000957762
0.000957762
0.000957762
0.000957762
0.000957762
0.000957763
0.000957765
0.000957766
0.000957766
0.000957766
0.000957766
0.000957766
0.000957764
0.000957763
0.000957765
0.000957765
0.000957765
0.000957765
0.000957765
0.000957764
0.000957764
0.000957764
0.000957764
0.000957763
0.000957763
0.000957764
0.000957764
0.000957764
0.000957764
0.000957764
0.000957764
0.000957764
0.000957764
0.000957764
0.000957764
0.000957764
0.000957764
0.000957764
0.000957764
0.000957764
0.000957764
0.000957764
0.000957764
0.000957764
0.000957761
0.00095776
0.000957759
0.00095776
0.00095776
0.000957761
0.00095776
0.000957759
0.000957759
0.000957759
0.000953302
0.000953302
0.000953302
0.000953302
0.000953302
0.000953303
0.000953303
0.000953303
0.000953302
0.000953302
0.000953302
0.000953303
0.000953304
0.000953307
0.000953307
0.000953307
0.000953307
0.000953306
0.000953303
0.000953303
0.000953305
0.000953305
0.000953305
0.000953305
0.000953304
0.000953304
0.000953304
0.000953303
0.000953303
0.000953302
0.000953302
0.000953303
0.000953303
0.000953303
0.000953303
0.000953303
0.000953303
0.000953303
0.000953303
0.000953304
0.000953304
0.000953304
0.000953304
0.000953304
0.000953304
0.000953304
0.000953305
0.000953305
0.000953305
0.000953303
0.0009533
0.000953299
0.000953299
0.0009533
0.0009533
0.0009533
0.000953299
0.000953299
0.000953299
0.000953299
0.000949079
0.000949079
0.000949079
0.000949079
0.000949079
0.000949079
0.00094908
0.00094908
0.000949079
0.000949079
0.000949079
0.000949079
0.000949079
0.000949082
0.000949084
0.000949084
0.000949083
0.00094908
0.000949078
0.000949078
0.00094908
0.00094908
0.00094908
0.000949079
0.000949079
0.000949078
0.000949078
0.000949077
0.000949077
0.000949075
0.000949076
0.000949077
0.000949077
0.000949077
0.000949077
0.000949077
0.000949077
0.000949078
0.000949078
0.000949079
0.000949079
0.000949079
0.000949079
0.00094908
0.00094908
0.00094908
0.00094908
0.00094908
0.00094908
0.000949077
0.000949075
0.000949074
0.000949075
0.000949075
0.000949076
0.000949076
0.000949075
0.000949074
0.000949074
0.000949074
0.00094507
0.00094507
0.00094507
0.00094507
0.00094507
0.00094507
0.00094507
0.00094507
0.00094507
0.000945069
0.000945068
0.000945068
0.000945068
0.000945069
0.000945073
0.000945074
0.000945072
0.000945068
0.000945066
0.000945066
0.000945068
0.000945068
0.000945067
0.000945067
0.000945066
0.000945065
0.000945065
0.000945064
0.000945063
0.000945062
0.000945063
0.000945063
0.000945063
0.000945064
0.000945064
0.000945064
0.000945065
0.000945065
0.000945066
0.000945066
0.000945067
0.000945067
0.000945068
0.000945068
0.000945069
0.000945069
0.000945069
0.000945069
0.000945068
0.000945065
0.000945063
0.000945063
0.000945064
0.000945064
0.000945064
0.000945064
0.000945064
0.000945063
0.000945063
0.000945063
0.000941255
0.000941255
0.000941255
0.000941255
0.000941255
0.000941255
0.000941255
0.000941255
0.000941255
0.000941254
0.000941253
0.000941252
0.000941251
0.000941252
0.000941256
0.000941257
0.000941255
0.00094125
0.000941248
0.000941248
0.00094125
0.00094125
0.000941248
0.000941247
0.000941246
0.000941245
0.000941245
0.000941244
0.000941243
0.000941241
0.000941242
0.000941243
0.000941243
0.000941244
0.000941244
0.000941245
0.000941246
0.000941246
0.000941247
0.000941248
0.000941249
0.00094125
0.00094125
0.000941251
0.000941251
0.000941252
0.000941252
0.000941252
0.000941248
0.000941247
0.000941246
0.000941246
0.000941247
0.000941247
0.000941248
0.000941248
0.000941247
0.000941247
0.000941247
0.000941247
0.000937618
0.000937618
0.000937618
0.000937617
0.000937617
0.000937617
0.000937617
0.000937617
0.000937616
0.000937616
0.000937614
0.000937613
0.000937612
0.000937613
0.000937616
0.000937617
0.000937612
0.000937609
0.000937607
0.000937606
0.000937608
0.000937607
0.000937606
0.000937604
0.000937603
0.000937602
0.000937601
0.0009376
0.000937599
0.000937597
0.000937599
0.000937599
0.0009376
0.0009376
0.000937601
0.000937602
0.000937603
0.000937604
0.000937606
0.000937607
0.000937608
0.000937609
0.00093761
0.000937611
0.000937612
0.000937612
0.000937613
0.000937612
0.000937608
0.000937607
0.000937607
0.000937607
0.000937608
0.000937608
0.000937608
0.000937608
0.000937608
0.000937608
0.000937608
0.000937608
0.000934143
0.000934143
0.000934143
0.000934143
0.000934143
0.000934142
0.000934142
0.000934142
0.000934141
0.00093414
0.000934139
0.000934137
0.000934135
0.000934135
0.000934136
0.000934138
0.000934133
0.00093413
0.000934128
0.000934127
0.000934127
0.000934127
0.000934125
0.000934123
0.000934121
0.00093412
0.000934119
0.000934118
0.000934116
0.000934115
0.000934116
0.000934117
0.000934118
0.000934119
0.00093412
0.000934121
0.000934123
0.000934124
0.000934126
0.000934128
0.000934129
0.00093413
0.000934132
0.000934133
0.000934134
0.000934135
0.000934134
0.000934133
0.000934131
0.00093413
0.00093413
0.00093413
0.000934131
0.000934131
0.000934132
0.000934132
0.000934131
0.000934131
0.000934131
0.000934131
0.000930818
0.000930818
0.000930818
0.000930818
0.000930817
0.000930817
0.000930817
0.000930816
0.000930815
0.000930814
0.000930812
0.00093081
0.000930808
0.000930807
0.000930807
0.000930808
0.000930804
0.0009308
0.000930797
0.000930795
0.000930794
0.000930794
0.000930793
0.00093079
0.000930788
0.000930786
0.000930785
0.000930783
0.000930782
0.000930781
0.000930782
0.000930783
0.000930784
0.000930786
0.000930787
0.000930789
0.000930791
0.000930793
0.000930795
0.000930797
0.0009308
0.000930801
0.000930803
0.000930805
0.000930806
0.000930807
0.000930805
0.000930804
0.000930803
0.000930802
0.000930803
0.000930803
0.000930804
0.000930804
0.000930805
0.000930805
0.000930805
0.000930804
0.000930804
0.000930804
0.000927632
0.000927632
0.000927631
0.000927631
0.000927631
0.00092763
0.000927629
0.000927629
0.000927627
0.000927626
0.000927624
0.000927621
0.000927619
0.000927616
0.000927614
0.000927613
0.000927611
0.000927608
0.000927604
0.000927602
0.000927599
0.000927599
0.000927597
0.000927594
0.000927592
0.000927589
0.000927588
0.000927586
0.000927585
0.000927583
0.000927585
0.000927586
0.000927588
0.00092759
0.000927592
0.000927595
0.000927597
0.0009276
0.000927603
0.000927605
0.000927608
0.000927611
0.000927613
0.000927615
0.000927616
0.000927616
0.000927615
0.000927615
0.000927614
0.000927613
0.000927614
0.000927614
0.000927615
0.000927616
0.000927616
0.000927616
0.000927616
0.000927616
0.000927616
0.000927616
0.000924573
0.000924573
0.000924573
0.000924572
0.000924571
0.000924571
0.00092457
0.000924569
0.000924567
0.000924565
0.000924563
0.00092456
0.000924557
0.000924554
0.00092455
0.000924548
0.000924546
0.000924543
0.000924539
0.000924535
0.000924531
0.000924531
0.000924529
0.000924525
0.000924522
0.000924519
0.000924517
0.000924515
0.000924514
0.000924513
0.000924515
0.000924516
0.000924518
0.000924521
0.000924524
0.000924527
0.000924531
0.000924534
0.000924538
0.000924541
0.000924544
0.000924547
0.00092455
0.000924552
0.000924553
0.000924553
0.000924553
0.000924553
0.000924552
0.000924552
0.000924553
0.000924554
0.000924555
0.000924555
0.000924555
0.000924556
0.000924555
0.000924555
0.000924555
0.000924555
0.000921633
0.000921633
0.000921632
0.000921632
0.000921631
0.00092163
0.000921629
0.000921627
0.000921626
0.000921623
0.00092162
0.000921617
0.000921613
0.00092161
0.000921606
0.000921603
0.0009216
0.000921596
0.000921591
0.000921586
0.000921581
0.000921581
0.000921577
0.000921573
0.000921569
0.000921566
0.000921564
0.000921562
0.000921561
0.000921559
0.000921562
0.000921564
0.000921567
0.00092157
0.000921574
0.000921578
0.000921582
0.000921587
0.000921591
0.000921595
0.000921599
0.000921603
0.000921606
0.000921608
0.000921608
0.000921609
0.00092161
0.00092161
0.00092161
0.00092161
0.000921611
0.000921612
0.000921613
0.000921613
0.000921613
0.000921614
0.000921613
0.000921613
0.000921613
0.000921613
0.000918803
0.000918803
0.000918803
0.000918802
0.000918801
0.0009188
0.000918798
0.000918797
0.000918794
0.000918791
0.000918788
0.000918784
0.00091878
0.000918775
0.000918771
0.000918767
0.000918764
0.000918759
0.000918752
0.000918747
0.000918741
0.000918739
0.000918735
0.000918731
0.000918726
0.000918722
0.00091872
0.000918718
0.000918717
0.000918715
0.000918718
0.000918721
0.000918725
0.000918729
0.000918734
0.000918739
0.000918744
0.00091875
0.000918755
0.00091876
0.000918765
0.000918769
0.000918773
0.000918774
0.000918775
0.000918776
0.000918777
0.000918778
0.000918778
0.000918778
0.00091878
0.00091878
0.000918781
0.000918782
0.000918782
0.000918782
0.000918782
0.000918782
0.000918782
0.000918782
0.000916076
0.000916076
0.000916076
0.000916075
0.000916074
0.000916072
0.000916071
0.000916068
0.000916066
0.000916063
0.000916059
0.000916054
0.000916049
0.000916044
0.000916039
0.000916034
0.00091603
0.000916023
0.000916016
0.000916009
0.000916003
0.000915997
0.000915995
0.00091599
0.000915985
0.000915981
0.000915978
0.000915976
0.000915975
0.000915974
0.000915978
0.000915981
0.000915986
0.000915991
0.000915997
0.000916003
0.000916009
0.000916016
0.000916022
0.000916028
0.000916034
0.000916039
0.000916041
0.000916043
0.000916045
0.000916047
0.000916049
0.000916049
0.000916049
0.000916051
0.000916051
0.000916052
0.000916053
0.000916054
0.000916054
0.000916054
0.000916054
0.000916053
0.000916053
0.000916053
0.000913446
0.000913446
0.000913445
0.000913444
0.000913443
0.000913441
0.000913439
0.000913437
0.000913434
0.00091343
0.000913425
0.00091342
0.000913415
0.000913409
0.000913403
0.000913397
0.000913392
0.000913385
0.000913376
0.000913368
0.00091336
0.000913353
0.00091335
0.000913345
0.00091334
0.000913335
0.000913332
0.00091333
0.000913329
0.000913329
0.000913333
0.000913338
0.000913343
0.00091335
0.000913356
0.000913364
0.000913371
0.000913379
0.000913387
0.000913393
0.0009134
0.000913405
0.000913406
0.000913409
0.000913412
0.000913415
0.000913417
0.000913417
0.000913418
0.000913419
0.00091342
0.000913421
0.000913421
0.000913422
0.000913422
0.000913422
0.000913422
0.000913421
0.000913421
0.000913422
0.000910906
0.000910905
0.000910905
0.000910903
0.000910902
0.0009109
0.000910898
0.000910895
0.000910892
0.000910887
0.000910882
0.000910877
0.00091087
0.000910864
0.000910856
0.00091085
0.000910844
0.000910835
0.000910826
0.000910817
0.000910808
0.0009108
0.000910796
0.000910791
0.000910785
0.00091078
0.000910777
0.000910775
0.000910775
0.000910775
0.000910781
0.000910786
0.000910793
0.0009108
0.000910808
0.000910817
0.000910825
0.000910834
0.000910842
0.00091085
0.000910857
0.000910862
0.000910864
0.000910868
0.000910871
0.000910874
0.000910875
0.000910876
0.000910877
0.000910879
0.000910879
0.00091088
0.00091088
0.000910881
0.000910881
0.000910881
0.00091088
0.00091088
0.00091088
0.00091088
0.00090845
0.00090845
0.000908449
0.000908447
0.000908446
0.000908444
0.000908441
0.000908438
0.000908434
0.000908429
0.000908424
0.000908418
0.000908411
0.000908403
0.000908395
0.000908387
0.00090838
0.000908371
0.000908361
0.000908351
0.00090834
0.000908331
0.000908324
0.000908321
0.000908316
0.000908311
0.000908309
0.000908308
0.000908308
0.00090831
0.000908316
0.000908323
0.00090833
0.000908338
0.000908347
0.000908357
0.000908366
0.000908376
0.000908385
0.000908392
0.000908399
0.000908404
0.000908408
0.000908413
0.000908417
0.000908419
0.00090842
0.000908421
0.000908422
0.000908423
0.000908424
0.000908424
0.000908424
0.000908424
0.000908424
0.000908424
0.000908423
0.000908423
0.000908423
0.000908423
0.000906074
0.000906074
0.000906073
0.000906071
0.000906069
0.000906067
0.000906064
0.000906061
0.000906057
0.000906051
0.000906045
0.000906039
0.000906031
0.000906022
0.000906013
0.000906004
0.000905995
0.000905986
0.000905975
0.000905964
0.000905954
0.000905944
0.000905936
0.000905934
0.00090593
0.000905927
0.000905925
0.000905926
0.000905928
0.00090593
0.000905938
0.000905945
0.000905954
0.000905962
0.000905972
0.000905981
0.000905991
0.000906001
0.00090601
0.000906018
0.000906024
0.000906029
0.000906035
0.000906039
0.000906043
0.000906044
0.000906045
0.000906047
0.000906048
0.000906048
0.000906048
0.000906048
0.000906048
0.000906048
0.000906048
0.000906047
0.000906046
0.000906046
0.000906045
0.000906045
0.000903773
0.000903773
0.000903772
0.00090377
0.000903768
0.000903766
0.000903763
0.000903759
0.000903754
0.000903749
0.000903742
0.000903735
0.000903726
0.000903717
0.000903707
0.000903697
0.000903687
0.000903677
0.000903666
0.000903655
0.000903643
0.000903634
0.000903627
0.000903627
0.000903627
0.000903625
0.000903626
0.000903629
0.000903634
0.000903639
0.000903648
0.000903656
0.000903664
0.000903671
0.000903679
0.000903687
0.000903696
0.000903706
0.000903715
0.000903723
0.000903729
0.000903734
0.000903739
0.000903744
0.000903746
0.000903747
0.000903748
0.000903749
0.000903749
0.000903749
0.000903749
0.000903748
0.000903748
0.000903747
0.000903746
0.000903745
0.000903744
0.000903743
0.000903743
0.000903743
0.000901543
0.000901542
0.000901541
0.00090154
0.000901538
0.000901535
0.000901532
0.000901528
0.000901523
0.000901517
0.00090151
0.000901502
0.000901493
0.000901483
0.000901473
0.000901462
0.000901451
0.000901441
0.000901429
0.000901418
0.000901407
0.000901399
0.000901395
0.000901398
0.000901408
0.000901411
0.000901417
0.000901426
0.000901437
0.000901447
0.000901459
0.000901468
0.000901475
0.000901478
0.000901481
0.000901485
0.000901482
0.000901491
0.000901498
0.000901504
0.00090151
0.000901515
0.000901519
0.000901521
0.000901522
0.000901522
0.000901523
0.000901523
0.000901523
0.000901522
0.000901521
0.000901519
0.000901518
0.000901517
0.000901516
0.000901514
0.000901513
0.000901512
0.000901511
0.000901511
0.00089938
0.000899379
0.000899378
0.000899376
0.000899374
0.000899371
0.000899368
0.000899364
0.000899358
0.000899352
0.000899345
0.000899337
0.000899327
0.000899317
0.000899306
0.000899294
0.000899283
0.000899272
0.000899261
0.000899251
0.000899242
0.000899237
0.000899238
0.000899269
0.000900295
0.000900303
0.000900312
0.000900327
0.000900345
0.000900361
0.000900379
0.000900391
0.000900397
0.000900397
0.000900394
0.000900392
0.000899371
0.000899358
0.00089936
0.000899363
0.000899366
0.000899368
0.00089937
0.000899369
0.000899368
0.000899368
0.000899367
0.000899366
0.000899364
0.000899362
0.00089936
0.000899358
0.000899356
0.000899354
0.000899352
0.00089935
0.000899349
0.000899347
0.000899347
0.000899346
0.00089728
0.000897279
0.000897278
0.000897277
0.000897274
0.000897271
0.000897268
0.000897263
0.000897258
0.000897252
0.000897244
0.000897236
0.000897226
0.000897216
0.000897204
0.000897192
0.00089718
0.000897169
0.000897159
0.000897152
0.000897146
0.000897146
0.000897172
0.000898192
0.000898149
0.000898178
0.000898203
0.000898235
0.000898274
0.000898309
0.000898338
0.000898354
0.000898353
0.000898338
0.000898314
0.000898292
0.000898322
0.00089732
0.000897307
0.000897301
0.000897297
0.000897294
0.00089729
0.000897286
0.000897282
0.00089728
0.000897277
0.000897274
0.00089727
0.000897267
0.000897264
0.00089726
0.000897258
0.000897255
0.000897252
0.00089725
0.000897248
0.000897246
0.000897245
0.000897245
0.00089524
0.00089524
0.000895239
0.000895237
0.000895235
0.000895231
0.000895228
0.000895223
0.000895218
0.000895212
0.000895204
0.000895195
0.000895186
0.000895175
0.000895164
0.000895152
0.00089514
0.00089513
0.000895122
0.000895118
0.000895117
0.000895128
0.000895196
0.000896122
0.000896097
0.000896654
0.000896694
0.000896753
0.000896826
0.000896893
0.000896945
0.000896967
0.000896955
0.000896917
0.000896859
0.000896312
0.000896323
0.000895373
0.000895339
0.000895318
0.000895301
0.000895288
0.000895278
0.000895269
0.000895261
0.000895255
0.000895249
0.000895244
0.000895238
0.000895233
0.000895228
0.000895223
0.000895219
0.000895215
0.000895212
0.000895209
0.000895206
0.000895204
0.000895203
0.000895203
0.000893257
0.000893257
0.000893256
0.000893254
0.000893252
0.000893249
0.000893245
0.000893241
0.000893236
0.000893229
0.000893222
0.000893213
0.000893204
0.000893194
0.000893183
0.000893172
0.000893161
0.000893152
0.000893146
0.000893147
0.000893154
0.000893184
0.00089332
0.000894163
0.00089414
0.000894793
0.000894815
0.00089495
0.000895121
0.000895276
0.000895378
0.000895402
0.000895353
0.000895252
0.000895121
0.000894472
0.000894471
0.00089353
0.000893463
0.000893418
0.00089338
0.000893352
0.000893331
0.000893315
0.000893302
0.000893291
0.000893281
0.000893272
0.000893264
0.000893257
0.00089325
0.000893244
0.000893238
0.000893233
0.000893229
0.000893225
0.000893222
0.000893219
0.000893218
0.000893217
0.000891329
0.000891329
0.000891328
0.000891326
0.000891324
0.000891321
0.000891317
0.000891313
0.000891308
0.000891302
0.000891294
0.000891286
0.000891277
0.000891268
0.000891258
0.000891248
0.000891239
0.000891233
0.000891231
0.000891238
0.000891258
0.000891317
0.000891547
0.000892325
0.00089233
0.000893225
0.000893186
0.00089353
0.000893933
0.000894264
0.000894416
0.000894369
0.000894182
0.000893937
0.000893695
0.000892806
0.000892814
0.000891816
0.000891687
0.000891603
0.000891535
0.000891486
0.000891451
0.000891424
0.000891403
0.000891386
0.000891371
0.000891358
0.000891346
0.000891336
0.000891326
0.000891318
0.000891311
0.000891305
0.0008913
0.000891295
0.000891291
0.000891288
0.000891286
0.000891285
0.000889452
0.000889452
0.000889451
0.000889449
0.000889447
0.000889445
0.000889441
0.000889437
0.000889432
0.000889427
0.00088942
0.000889412
0.000889404
0.000889395
0.000889387
0.000889379
0.000889373
0.00088937
0.000889375
0.00088939
0.000889427
0.000889527
0.000889874
0.000890606
0.000890738
0.000891984
0.000891962
0.000892891
0.00089396
0.000894788
0.000894992
0.000894604
0.000893941
0.000893283
0.000892762
0.000891435
0.000891397
0.000890264
0.000890025
0.000889879
0.000889769
0.00088969
0.000889635
0.000889594
0.000889562
0.000889536
0.000889514
0.000889496
0.000889481
0.000889467
0.000889455
0.000889445
0.000889436
0.000889428
0.000889421
0.000889416
0.000889411
0.000889407
0.000889405
0.000889404
0.000887625
0.000887624
0.000887623
0.000887622
0.00088762
0.000887618
0.000887615
0.000887611
0.000887607
0.000887601
0.000887595
0.000887588
0.000887581
0.000887574
0.000887567
0.000887561
0.000887559
0.000887561
0.000887574
0.000887601
0.000887661
0.00088781
0.000888281
0.000889
0.000889444
0.00089114
0.000891602
0.000894171
0.000897485
0.000900139
0.000900321
0.00089836
0.000895897
0.000893917
0.00089259
0.000890531
0.000890274
0.00088892
0.0008885
0.000888255
0.000888084
0.000887965
0.000887882
0.000887822
0.000887776
0.000887739
0.00088771
0.000887686
0.000887665
0.000887648
0.000887633
0.00088762
0.000887609
0.000887599
0.000887592
0.000887585
0.000887579
0.000887575
0.000887573
0.000887572
0.000885844
0.000885843
0.000885843
0.000885841
0.00088584
0.000885838
0.000885835
0.000885832
0.000885828
0.000885824
0.000885818
0.000885813
0.000885807
0.000885801
0.000885797
0.000885794
0.000885795
0.000885804
0.000885824
0.000885864
0.000885954
0.00088615
0.000886728
0.000887496
0.000888503
0.000890908
0.000893351
0.000901119
0.000914013
0.000926108
0.000925316
0.000914146
0.000903604
0.000897149
0.000893596
0.000890305
0.000889505
0.00088783
0.000887135
0.000886733
0.000886483
0.000886309
0.000886191
0.000886106
0.000886042
0.000885994
0.000885955
0.000885924
0.000885898
0.000885876
0.000885857
0.000885842
0.000885829
0.000885817
0.000885808
0.0008858
0.000885794
0.000885789
0.000885786
0.000885785
0.000884107
0.000884107
0.000884106
0.000884105
0.000884104
0.000884103
0.000884101
0.000884098
0.000884095
0.000884092
0.000884087
0.000884083
0.000884079
0.000884076
0.000884074
0.000884074
0.00088408
0.000884094
0.000884123
0.000884175
0.000884295
0.000884523
0.000885174
0.000886087
0.000887921
0.000891898
0.000900372
0.000919998
0.000397021
0.000266939
0.000290875
0.000486578
0.000927355
0.000905575
0.000896378
0.000890899
0.000889152
0.000887029
0.000885951
0.000885316
0.000884963
0.00088472
0.000884558
0.000884443
0.000884359
0.000884296
0.000884247
0.000884207
0.000884175
0.000884149
0.000884126
0.000884108
0.000884092
0.000884079
0.000884068
0.000884059
0.000884052
0.000884046
0.000884043
0.000884041
0.000882414
0.000882413
0.000882413
0.000882412
0.000882411
0.00088241
0.000882409
0.000882407
0.000882405
0.000882403
0.0008824
0.000882398
0.000882395
0.000882394
0.000882396
0.0008824
0.00088241
0.00088243
0.000882467
0.000882527
0.000882672
0.000882904
0.0008836
0.000884752
0.000887681
0.000895018
0.000918686
0.000422254
0.000195148
9.78563e-05
0.000111398
0.000203808
0.00055921
0.000923252
0.000901578
0.000892273
0.000889235
0.000886505
0.000884952
0.000884001
0.000883522
0.000883194
0.000882981
0.000882831
0.000882724
0.000882644
0.000882582
0.000882534
0.000882495
0.000882464
0.000882437
0.000882415
0.000882397
0.000882382
0.00088237
0.000882359
0.000882351
0.000882345
0.000882341
0.000882339
0.00088076
0.00088076
0.00088076
0.00088076
0.000880759
0.000880759
0.000880758
0.000880758
0.000880757
0.000880756
0.000880755
0.000880754
0.000880754
0.000880756
0.000880761
0.000880769
0.000880784
0.000880809
0.000880852
0.000880916
0.000881074
0.00088129
0.000882012
0.000883408
0.000887671
0.000900282
0.000948567
0.000323102
0.000231599
0.000137674
0.000518516
0.000948999
0.000909495
0.000894075
0.000889704
0.00088619
0.000884119
0.000882779
0.000882154
0.000881726
0.000881454
0.000881265
0.000881131
0.000881033
0.000880959
0.000880901
0.000880855
0.000880818
0.000880787
0.000880762
0.000880742
0.000880724
0.00088071
0.000880699
0.00088069
0.000880683
0.000880679
0.000880677
0.000879146
0.000879146
0.000879146
0.000879146
0.000879146
0.000879146
0.000879147
0.000879147
0.000879148
0.000879148
0.000879149
0.000879151
0.000879154
0.000879159
0.000879167
0.000879181
0.000879201
0.00087923
0.000879277
0.000879342
0.000879503
0.000879698
0.000880429
0.000881959
0.000887649
0.000905119
0.000978087
0.000395901
0.000167762
4.12789e-05
5.45864e-05
0.000671597
0.000972826
0.000919884
0.000895731
0.000890477
0.000885963
0.000883407
0.000881635
0.000880849
0.000880311
0.000879974
0.000879743
0.000879581
0.000879463
0.000879375
0.000879307
0.000879254
0.000879211
0.000879176
0.000879148
0.000879124
0.000879105
0.000879089
0.000879077
0.000879067
0.00087906
0.000879055
0.000879053
0.000877569
0.000877569
0.000877569
0.000877569
0.00087757
0.000877571
0.000877573
0.000877574
0.000877576
0.000877579
0.000877582
0.000877586
0.000877592
0.000877601
0.000877614
0.000877632
0.000877658
0.000877694
0.000877746
0.000877811
0.000877977
0.000878158
0.000878908
0.000880494
0.000887502
0.000906729
0.00100784
0.000602692
0.000269803
0.000309088
0.000593476
0.000132851
0.000599496
0.000996715
0.000932645
0.000896643
0.000891526
0.000885685
0.00088275
0.000880547
0.000879594
0.000878938
0.000878535
0.000878259
0.000878068
0.00087793
0.000877828
0.000877749
0.000877689
0.00087764
0.000877601
0.000877569
0.000877543
0.000877522
0.000877504
0.00087749
0.00087748
0.000877472
0.000877467
0.000877464
0.000876026
0.000876027
0.000876027
0.000876028
0.00087603
0.000876032
0.000876034
0.000876037
0.000876041
0.000876045
0.000876051
0.000876058
0.000876068
0.000876081
0.000876099
0.000876124
0.000876157
0.000876201
0.000876261
0.000876335
0.000876522
0.000876703
0.000877624
0.000879494
0.000887392
0.000910843
0.00108601
0.00105218
0.00253104
0.00677655
0.00424155
0.000212299
0.000512204
0.00103808
0.000949666
0.000896708
0.000893042
0.000885271
0.000882076
0.000879495
0.00087837
0.000877598
0.000877128
0.000876809
0.000876588
0.000876431
0.000876314
0.000876226
0.000876157
0.000876103
0.00087606
0.000876025
0.000875996
0.000875973
0.000875954
0.000875939
0.000875927
0.000875918
0.000875913
0.00087591
0.000874518
0.000874518
0.00087452
0.000874521
0.000874523
0.000874526
0.00087453
0.000874534
0.00087454
0.000874547
0.000874555
0.000874566
0.000874579
0.000874598
0.000874622
0.000874654
0.000874696
0.000874751
0.000874826
0.000874923
0.000875161
0.000875394
0.000877001
0.000879857
0.000891069
0.000945108
0.00148841
0.00549906
0.00374904
0.00286258
0.00113606
0.000128695
0.000660004
0.00109636
0.000973343
0.000897436
0.000895326
0.00088473
0.000881332
0.000878472
0.000877163
0.000876284
0.00087575
0.000875387
0.000875139
0.000874962
0.000874832
0.000874734
0.000874658
0.000874599
0.000874551
0.000874513
0.000874482
0.000874456
0.000874436
0.00087442
0.000874407
0.000874398
0.000874392
0.000874389
0.000873042
0.000873043
0.000873044
0.000873046
0.000873049
0.000873053
0.000873058
0.000873064
0.000873072
0.000873081
0.000873092
0.000873107
0.000873125
0.000873149
0.000873179
0.000873219
0.000873273
0.000873346
0.000873446
0.000873583
0.000873899
0.000874337
0.000877576
0.000882539
0.000910842
0.00106046
0.00326089
0.00273089
0.00105609
0.00079173
0.000360401
9.65339e-05
0.000892506
0.00114795
0.000999732
0.000901112
0.000898118
0.000884136
0.000880486
0.000877461
0.000875955
0.000874987
0.000874392
0.000873991
0.000873717
0.000873522
0.00087338
0.000873272
0.00087319
0.000873125
0.000873073
0.000873032
0.000872998
0.000872971
0.00087295
0.000872932
0.000872919
0.000872909
0.000872903
0.000872899
0.000871598
0.000871598
0.0008716
0.000871603
0.000871606
0.000871611
0.000871618
0.000871626
0.000871635
0.000871647
0.000871661
0.00087168
0.000871702
0.000871731
0.000871769
0.000871821
0.00087189
0.000871986
0.000872117
0.000872307
0.000872728
0.000873633
0.00087959
0.000888101
0.000955612
0.00136908
0.00286322
0.00188193
0.000422798
0.000246813
0.000137722
0.000138759
0.00112131
0.00118265
0.00101693
0.000909268
0.000900886
0.000883609
0.000879539
0.000876433
0.000874735
0.0008737
0.000873049
0.000872617
0.000872319
0.000872109
0.000871954
0.000871839
0.00087175
0.00087168
0.000871625
0.000871581
0.000871545
0.000871516
0.000871493
0.000871475
0.000871461
0.00087145
0.000871444
0.00087144
0.000870182
0.000870183
0.000870185
0.000870189
0.000870193
0.000870199
0.000870207
0.000870217
0.000870229
0.000870243
0.000870261
0.000870283
0.00087031
0.000870345
0.000870393
0.000870457
0.000870544
0.000870665
0.000870832
0.000871083
0.00087163
0.000873302
0.000882769
0.000896245
0.00101471
0.00170427
0.00211853
0.00125899
0.000231156
7.85713e-05
9.15429e-05
0.000298162
0.00128451
0.00120691
0.00102387
0.000921363
0.000903077
0.00088327
0.000878517
0.000875364
0.0008735
0.00087242
0.000871719
0.00087126
0.000870943
0.000870719
0.000870555
0.000870432
0.000870337
0.000870264
0.000870205
0.000870158
0.000870121
0.00087009
0.000870066
0.000870047
0.000870032
0.000870021
0.000870014
0.00087001
0.000868796
0.000868796
0.000868799
0.000868803
0.000868809
0.000868816
0.000868825
0.000868837
0.000868851