/*--------------------------------*- C++ -*----------------------------------*\
  =========                 |
  \\      /  F ield         | OpenFOAM: The Open Source CFD Toolbox
   \\    /   O peration     | Website:  https://openfoam.org
    \\  /    A nd           | Version:  12
     \\/     M anipulation  |
\*---------------------------------------------------------------------------*/
FoamFile
{
    format      ascii;
    class       volScalarField;
    location    "160";
    object      omega;
}
// * * * * * * * * * * * * * * * * * * * * * * * * * * * * * * * * * * * * * //

dimensions      [0 0 -1 0 0 0 0];

internalField   nonuniform List<scalar> 
16227
(
9.34702
9.34704
9.34704
9.34707
9.34706
9.3471
9.34709
9.34708
9.34707
9.34709
9.34713
9.34715
9.3472
9.3472
9.3472
9.3472
9.3472
9.3472
9.3472
9.3472
9.3472
9.3472
9.3472
9.3472
9.3472
9.3472
9.3472
9.34722
9.34722
9.3472
9.34721
9.3472
9.3472
9.3472
9.34721
9.3472
9.3472
9.3472
9.3472
9.3472
9.3472
9.3472
9.3472
9.3472
9.3472
9.3472
9.3472
9.34719
9.34717
9.34717
9.34717
9.34716
9.3471
9.3471
9.34706
9.34705
9.34707
9.34705
9.34703
9.34702
8.71805
8.71807
8.71807
8.7181
8.7181
8.71814
8.71813
8.7181
8.71811
8.71812
8.71817
8.71819
8.71833
8.71839
8.7184
8.7184
8.7184
8.7184
8.7184
8.7184
8.71841
8.71843
8.71843
8.71843
8.71843
8.71843
8.71842
8.71842
8.7184
8.71835
8.7184
8.71842
8.71842
8.71843
8.71842
8.71841
8.7184
8.7184
8.7184
8.7184
8.7184
8.7184
8.7184
8.71839
8.71839
8.71838
8.71838
8.71838
8.71838
8.71837
8.71834
8.71829
8.71818
8.71817
8.71813
8.71811
8.71815
8.71807
8.71809
8.71806
8.16619
8.16621
8.16621
8.16623
8.16622
8.16631
8.16626
8.16625
8.16626
8.16627
8.16632
8.16633
8.16658
8.16663
8.16664
8.16665
8.16665
8.16665
8.16667
8.16662
8.16665
8.16666
8.16666
8.16666
8.16665
8.16665
8.16665
8.16666
8.16664
8.16657
8.16663
8.16665
8.16665
8.16665
8.16666
8.16666
8.16666
8.16665
8.16664
8.16665
8.16665
8.16665
8.16664
8.16664
8.16664
8.16664
8.16663
8.16664
8.16663
8.16661
8.16657
8.16638
8.16631
8.1663
8.16628
8.16628
8.16631
8.16622
8.16623
8.16621
7.67831
7.67832
7.67833
7.67834
7.67835
7.67841
7.67841
7.67838
7.67839
7.67838
7.67843
7.67848
7.67874
7.67881
7.67883
7.67884
7.67885
7.67886
7.6788
7.67867
7.67878
7.67882
7.67881
7.67881
7.67882
7.67881
7.6788
7.6788
7.67878
7.67869
7.67876
7.67878
7.67878
7.67878
7.67879
7.6788
7.6788
7.6788
7.67881
7.67881
7.67882
7.67882
7.67882
7.67882
7.67882
7.67882
7.67883
7.67882
7.67883
7.6788
7.67869
7.6785
7.67841
7.67843
7.67843
7.67845
7.67842
7.67835
7.67835
7.67833
7.24407
7.24409
7.24409
7.24411
7.24411
7.24417
7.2442
7.24414
7.24415
7.24415
7.24419
7.24424
7.24448
7.24461
7.24462
7.24462
7.24463
7.2446
7.24439
7.24432
7.2445
7.24456
7.24456
7.24454
7.24453
7.24452
7.24451
7.2445
7.24447
7.24438
7.24446
7.24449
7.2445
7.2445
7.2445
7.24451
7.24453
7.24454
7.24455
7.24456
7.24458
7.2446
7.24459
7.2446
7.24461
7.24462
7.24463
7.24463
7.24463
7.24456
7.24432
7.24422
7.24415
7.24418
7.2442
7.24425
7.24419
7.24412
7.24412
7.2441
6.85523
6.85525
6.85525
6.85526
6.85526
6.85531
6.85535
6.8553
6.85528
6.85528
6.85529
6.85532
6.85543
6.85571
6.85577
6.85578
6.85577
6.85566
6.85543
6.85538
6.85559
6.85564
6.85562
6.85559
6.85558
6.85557
6.85555
6.85553
6.8555
6.8554
6.85548
6.85551
6.85552
6.85554
6.85555
6.85557
6.85559
6.85561
6.85563
6.85565
6.85568
6.8557
6.85572
6.85574
6.85575
6.85577
6.85578
6.85579
6.8558
6.85566
6.85544
6.85533
6.8553
6.85535
6.8554
6.85539
6.85534
6.85528
6.85528
6.85526
6.50513
6.50515
6.50514
6.50516
6.50515
6.50519
6.50523
6.50521
6.50517
6.50516
6.50514
6.50514
6.50524
6.50549
6.50562
6.50563
6.50559
6.5053
6.50517
6.50516
6.50536
6.5054
6.50536
6.50533
6.5053
6.50527
6.50524
6.50523
6.50519
6.50508
6.50517
6.5052
6.50521
6.50524
6.50527
6.50529
6.50532
6.50537
6.5054
6.50545
6.50548
6.50551
6.50555
6.50557
6.50561
6.50563
6.50565
6.50568
6.50562
6.50537
6.50525
6.50517
6.50518
6.50526
6.50527
6.50527
6.50523
6.50517
6.50518
6.50516
6.18835
6.18835
6.18835
6.18836
6.18835
6.18838
6.18842
6.18841
6.18836
6.18832
6.18829
6.18825
6.18829
6.18841
6.18868
6.18875
6.18868
6.18833
6.18821
6.18819
6.1884
6.18842
6.18837
6.18832
6.18826
6.18823
6.18819
6.18816
6.18811
6.188
6.1881
6.18814
6.18817
6.18819
6.18823
6.18828
6.18833
6.18838
6.18844
6.18849
6.18856
6.1886
6.18865
6.1887
6.18875
6.18878
6.18882
6.18883
6.18872
6.18849
6.18838
6.18835
6.18841
6.18845
6.18846
6.18846
6.18842
6.18838
6.18839
6.18837
5.9004
5.9004
5.9004
5.9004
5.90039
5.90041
5.90044
5.90042
5.9004
5.90034
5.90028
5.90022
5.90022
5.9003
5.90062
5.90069
5.90053
5.90019
5.90008
5.90003
5.90022
5.90022
5.90015
5.90008
5.90001
5.89996
5.8999
5.89987
5.89982
5.89969
5.89979
5.89984
5.89988
5.89993
5.89998
5.90005
5.90012
5.9002
5.90027
5.90035
5.90043
5.90051
5.90057
5.90064
5.9007
5.90077
5.9008
5.90076
5.90052
5.90041
5.90035
5.9004
5.90043
5.90048
5.90049
5.90049
5.90047
5.90042
5.90043
5.90043
5.63757
5.63758
5.63757
5.63757
5.63755
5.63757
5.63759
5.63755
5.63752
5.63749
5.63741
5.63731
5.6373
5.63738
5.63762
5.63769
5.63735
5.63713
5.63702
5.63697
5.63713
5.63711
5.63701
5.63692
5.63683
5.63676
5.63669
5.63664
5.63658
5.63646
5.63657
5.63662
5.63667
5.63673
5.63681
5.63689
5.63699
5.63709
5.6372
5.6373
5.6374
5.6375
5.63761
5.6377
5.63778
5.63785
5.6379
5.63783
5.63759
5.6375
5.63751
5.63754
5.63758
5.63763
5.63765
5.63766
5.63763
5.63761
5.63761
5.63761
5.39677
5.39677
5.39677
5.39676
5.39675
5.39675
5.39675
5.39671
5.39667
5.39662
5.39656
5.39643
5.39635
5.39636
5.39644
5.39661
5.39629
5.39609
5.39597
5.39589
5.39597
5.39596
5.39585
5.39573
5.39561
5.39552
5.39543
5.39537
5.39531
5.39518
5.39529
5.39536
5.39542
5.3955
5.3956
5.39572
5.39585
5.39598
5.39612
5.39626
5.39638
5.39651
5.39664
5.39675
5.39686
5.39694
5.39693
5.39682
5.39669
5.39664
5.39667
5.39671
5.39676
5.39682
5.39684
5.39685
5.39683
5.3968
5.39682
5.39681
5.17537
5.17537
5.17536
5.17536
5.17533
5.17533
5.17531
5.17528
5.17522
5.17515
5.17507
5.17496
5.17483
5.17478
5.1748
5.17492
5.17465
5.17445
5.17428
5.17415
5.17407
5.17413
5.17403
5.17388
5.17374
5.17362
5.17352
5.17344
5.17336
5.17324
5.17336
5.17344
5.17352
5.17363
5.17376
5.17391
5.17406
5.17423
5.1744
5.17457
5.17475
5.1749
5.17506
5.17521
5.17532
5.17539
5.1753
5.17527
5.17523
5.1752
5.17524
5.1753
5.17534
5.1754
5.17543
5.17545
5.17544
5.17541
5.17543
5.17542
4.97115
4.97116
4.97114
4.97113
4.9711
4.97109
4.97106
4.97101
4.97094
4.97086
4.97077
4.97064
4.9705
4.97036
4.97027
4.97022
4.97012
4.96996
4.96975
4.96958
4.96941
4.96948
4.96936
4.96917
4.969
4.96885
4.96872
4.96863
4.96855
4.96842
4.96855
4.96864
4.96875
4.96889
4.96905
4.96923
4.96943
4.96964
4.96986
4.97006
4.97027
4.97048
4.97066
4.97083
4.97096
4.97101
4.97095
4.97099
4.97095
4.97094
4.97099
4.97106
4.97112
4.97117
4.97122
4.97123
4.97123
4.97121
4.97122
4.97122
4.78222
4.78223
4.78221
4.78218
4.78215
4.78213
4.78209
4.78203
4.78195
4.78186
4.78174
4.78159
4.78144
4.78128
4.7811
4.781
4.78092
4.78073
4.78049
4.78027
4.78006
4.78009
4.77992
4.77969
4.77948
4.7793
4.77915
4.77904
4.77894
4.77882
4.77895
4.77907
4.7792
4.77937
4.77957
4.7798
4.78005
4.7803
4.78056
4.78083
4.78107
4.78131
4.78153
4.78172
4.78182
4.78184
4.7819
4.78196
4.78195
4.78198
4.78204
4.78211
4.78218
4.78224
4.78228
4.78231
4.7823
4.78229
4.78231
4.7823
4.60694
4.60694
4.60692
4.60689
4.60685
4.60682
4.60678
4.6067
4.60661
4.6065
4.60637
4.60619
4.60602
4.60582
4.60563
4.60549
4.60537
4.60514
4.60485
4.60459
4.60433
4.6043
4.60408
4.60381
4.60356
4.60334
4.60316
4.60303
4.60292
4.6028
4.60295
4.60308
4.60325
4.60346
4.60371
4.60398
4.60428
4.6046
4.60491
4.60522
4.60552
4.6058
4.60606
4.60624
4.60627
4.60639
4.6065
4.60658
4.60662
4.60666
4.60675
4.60683
4.6069
4.60696
4.607
4.60704
4.60704
4.60703
4.60704
4.60704
4.4439
4.4439
4.44387
4.44385
4.4438
4.44376
4.44371
4.44362
4.44351
4.44338
4.44323
4.44304
4.44284
4.44262
4.4424
4.44222
4.44205
4.44178
4.44144
4.44112
4.44081
4.44067
4.44044
4.44013
4.43982
4.43956
4.43935
4.43919
4.43908
4.43895
4.43911
4.43928
4.43948
4.43974
4.44004
4.44038
4.44074
4.44112
4.44148
4.44185
4.4422
4.44253
4.44282
4.44299
4.44307
4.44322
4.44336
4.44344
4.44351
4.4436
4.44371
4.44379
4.44387
4.44394
4.44399
4.44402
4.44402
4.44401
4.44403
4.44403
4.29188
4.29188
4.29185
4.29182
4.29177
4.29172
4.29165
4.29155
4.29143
4.29129
4.29112
4.2909
4.29068
4.29043
4.29017
4.28995
4.28975
4.28941
4.28904
4.28863
4.28826
4.28792
4.28774
4.28741
4.28706
4.28675
4.28649
4.28631
4.28618
4.28606
4.28623
4.28643
4.28668
4.28699
4.28735
4.28776
4.28819
4.28863
4.28907
4.2895
4.28991
4.29028
4.29053
4.29071
4.2909
4.29111
4.29128
4.29137
4.29146
4.29159
4.29169
4.29179
4.29187
4.29194
4.29199
4.29202
4.29203
4.29202
4.29204
4.29204
4.14982
4.14981
4.14979
4.14975
4.14969
4.14964
4.14956
4.14944
4.14931
4.14915
4.14896
4.14872
4.14847
4.14819
4.1479
4.14763
4.14738
4.14702
4.14657
4.1461
4.14565
4.14521
4.14499
4.14461
4.14419
4.14382
4.14352
4.1433
4.14315
4.14304
4.14324
4.14347
4.14377
4.14414
4.14458
4.14506
4.14558
4.14609
4.14661
4.14711
4.14757
4.14795
4.14816
4.14844
4.14871
4.14897
4.14916
4.14928
4.1494
4.14953
4.14965
4.14975
4.14983
4.14991
4.14996
4.14999
4.14999
4.15
4.15001
4.15001
4.01677
4.01677
4.01674
4.0167
4.01664
4.01657
4.01649
4.01636
4.01621
4.01603
4.01583
4.01557
4.01529
4.01498
4.01465
4.01434
4.01403
4.01361
4.01312
4.01259
4.01205
4.01154
4.01119
4.01077
4.01029
4.00985
4.00949
4.00923
4.00907
4.00895
4.00917
4.00945
4.00981
4.01027
4.01079
4.01137
4.01197
4.01258
4.01317
4.01373
4.01425
4.01467
4.01493
4.01527
4.0156
4.01587
4.01605
4.0162
4.01636
4.01652
4.01664
4.01674
4.01683
4.01691
4.01695
4.01698
4.01699
4.01699
4.017
4.01701
3.89193
3.89193
3.8919
3.89185
3.89178
3.89171
3.89162
3.89148
3.89132
3.89112
3.8909
3.89062
3.89031
3.88997
3.88961
3.88924
3.88887
3.88841
3.88786
3.88726
3.88663
3.88603
3.88546
3.88505
3.88452
3.884
3.88358
3.88327
3.88309
3.88298
3.88323
3.88356
3.884
3.88454
3.88516
3.88584
3.88654
3.88725
3.88791
3.88851
3.88906
3.88951
3.88993
3.89033
3.89071
3.89099
3.89119
3.89137
3.89156
3.89172
3.89185
3.89195
3.89203
3.89211
3.89215
3.89218
3.89219
3.89219
3.8922
3.8922
3.77457
3.77456
3.77453
3.77448
3.7744
3.77433
3.77422
3.77408
3.77391
3.7737
3.77345
3.77315
3.77282
3.77245
3.77203
3.77158
3.77115
3.77067
3.77007
3.76941
3.7687
3.76798
3.76728
3.7668
3.76618
3.76557
3.76507
3.7647
3.76448
3.76438
3.76466
3.76506
3.76559
3.76624
3.76698
3.76778
3.76859
3.76938
3.77012
3.77082
3.77138
3.77192
3.77245
3.77292
3.77331
3.77358
3.77382
3.77404
3.77425
3.77441
3.77454
3.77464
3.77473
3.77479
3.77484
3.77486
3.77486
3.77486
3.77487
3.77488
3.66403
3.66403
3.66399
3.66394
3.66386
3.66378
3.66366
3.66352
3.66333
3.66311
3.66284
3.66253
3.66218
3.66177
3.66131
3.66082
3.66032
3.65979
3.65914
3.65839
3.6576
3.65679
3.65597
3.65535
3.65463
3.65391
3.65331
3.65287
3.65261
3.65251
3.65283
3.65331
3.65395
3.65473
3.65561
3.65654
3.65745
3.65834
3.6592
3.66
3.66064
3.66128
3.66187
3.66238
3.66279
3.66308
3.66334
3.66358
3.66379
3.66395
3.66408
3.66418
3.66426
3.66432
3.66435
3.66438
3.66438
3.66437
3.66438
3.66438
3.55976
3.55976
3.55972
3.55966
3.55958
3.55949
3.55938
3.55922
3.55902
3.55879
3.55851
3.55818
3.5578
3.55737
3.55688
3.55634
3.55578
3.55519
3.55448
3.55366
3.55278
3.55185
3.55093
3.55007
3.54935
3.54849
3.54777
3.54725
3.54695
3.54685
3.54722
3.54782
3.54859
3.54952
3.55056
3.55164
3.55258
3.55359
3.55451
3.55541
3.55622
3.55696
3.55761
3.55812
3.55852
3.55886
3.55916
3.55941
3.55962
3.55978
3.5599
3.55999
3.56006
3.56011
3.56014
3.56015
3.56015
3.56014
3.56015
3.56015
3.46124
3.46124
3.4612
3.46114
3.46106
3.46096
3.46084
3.46067
3.46048
3.46023
3.45994
3.45959
3.4592
3.45874
3.45822
3.45763
3.45699
3.45631
3.45557
3.4547
3.45373
3.45269
3.45165
3.45099
3.49803
3.49713
3.49632
3.49573
3.49541
3.49531
3.49572
3.49638
3.49724
3.49827
3.4994
3.50056
3.4541
3.45464
3.45571
3.45673
3.45766
3.45847
3.45914
3.45965
3.46008
3.46045
3.46077
3.46103
3.46122
3.46137
3.46148
3.46156
3.46161
3.46166
3.46168
3.46168
3.46168
3.46167
3.46166
3.46167
3.36802
3.36801
3.36797
3.36792
3.36783
3.36773
3.36761
3.36744
3.36723
3.36698
3.36668
3.36632
3.36591
3.36543
3.36488
3.36425
3.36355
3.36279
3.36197
3.36108
3.36003
3.3589
3.3581
3.40252
3.39968
3.39878
3.39778
3.39705
3.39665
3.39655
3.39704
3.39786
3.39891
3.40015
3.40149
3.40277
3.40585
3.36168
3.36238
3.3635
3.3645
3.36536
3.36605
3.36658
3.36702
3.36741
3.36772
3.36796
3.36815
3.36828
3.36838
3.36844
3.36848
3.36851
3.36851
3.36851
3.3685
3.36848
3.36847
3.36847
3.27968
3.27967
3.27963
3.27957
3.27949
3.27939
3.27926
3.27909
3.27888
3.27862
3.27832
3.27795
3.27752
3.27703
3.27646
3.2758
3.27506
3.27423
3.27335
3.27239
3.27129
3.27007
3.26951
3.30965
3.30677
3.32828
3.32715
3.3263
3.32585
3.32578
3.32638
3.32734
3.32857
3.33
3.33149
3.31079
3.31352
3.2737
3.27409
3.27529
3.27635
3.27721
3.27789
3.27844
3.27891
3.2793
3.2796
3.27982
3.27998
3.2801
3.28017
3.28021
3.28023
3.28024
3.28024
3.28022
3.2802
3.28017
3.28016
3.28016
3.19586
3.19585
3.19581
3.19575
3.19567
3.19557
3.19544
3.19527
3.19506
3.1948
3.19449
3.19411
3.19368
3.19317
3.19259
3.19191
3.19114
3.19026
3.1893
3.18826
3.18711
3.18587
3.18561
3.22171
3.21877
3.23833
3.23695
3.23595
3.23548
3.23555
3.23628
3.23746
3.23898
3.2407
3.24237
3.22422
3.22631
3.19051
3.19055
3.19177
3.19282
3.19367
3.19436
3.19493
3.1954
3.19576
3.19603
3.19622
3.19636
3.19644
3.19649
3.1965
3.1965
3.1965
3.19647
3.19645
3.19641
3.19638
3.19636
3.19636
3.11622
3.11621
3.11617
3.11612
3.11603
3.11594
3.11581
3.11564
3.11543
3.11517
3.11486
3.11448
3.11404
3.11353
3.11294
3.11225
3.11146
3.11055
3.10953
3.10841
3.1072
3.10598
3.10609
3.13851
3.13541
3.15336
3.15159
3.15067
3.15039
3.15068
3.1516
3.15295
3.15468
3.15665
3.15873
3.1424
3.14417
3.11185
3.11146
3.11262
3.11363
3.11446
3.11515
3.11571
3.11614
3.11646
3.11669
3.11684
3.11693
3.11698
3.117
3.11699
3.11696
3.11693
3.11689
3.11685
3.1168
3.11676
3.11674
3.11673
3.04046
3.04045
3.04042
3.04036
3.04028
3.04019
3.04006
3.03989
3.03969
3.03943
3.03913
3.03875
3.03832
3.03781
3.03721
3.03651
3.03571
3.0348
3.03375
3.03258
3.03132
3.03014
3.03063
3.05969
3.05672
3.07339
3.07099
3.07106
3.07182
3.07297
3.07408
3.07512
3.0765
3.07832
3.0806
3.06562
3.06699
3.03752
3.03656
3.03756
3.03852
3.03932
3.03997
3.04046
3.04083
3.04109
3.04126
3.04137
3.04141
3.04142
3.0414
3.04135
3.0413
3.04124
3.04118
3.04112
3.04106
3.04101
3.04098
3.04097
2.96831
2.9683
2.96827
2.96822
2.96814
2.96805
2.96793
2.96777
2.96757
2.96732
2.96702
2.96666
2.96623
2.96572
2.96513
2.96443
2.96364
2.96272
2.96168
2.96051
2.95923
2.95811
2.95893
2.98499
2.98269
2.99812
2.99644
2.99954
3.00485
3.00975
3.01085
3.00891
3.00707
3.007
3.00829
2.99401
2.99461
2.96741
2.96575
2.96648
2.96731
2.96799
2.96852
2.96892
2.9692
2.96938
2.96948
2.96952
2.96951
2.96947
2.96941
2.96933
2.96924
2.96916
2.96907
2.969
2.96892
2.96886
2.96882
2.96881
2.89952
2.89951
2.89948
2.89943
2.89936
2.89928
2.89916
2.89901
2.89882
2.89858
2.8983
2.89794
2.89752
2.89703
2.89645
2.89577
2.89498
2.89408
2.89305
2.8919
2.89068
2.88967
2.89068
2.91411
2.91326
2.92837
2.93071
2.94516
2.97201
2.99852
2.99709
2.97412
2.95476
2.9455
2.94263
2.92792
2.92691
2.90141
2.89887
2.89913
2.8997
2.90019
2.90056
2.90082
2.90099
2.90107
2.90109
2.90105
2.90098
2.90089
2.90078
2.90066
2.90053
2.90042
2.90031
2.90022
2.90013
2.90006
2.90001
2.9
2.83386
2.83386
2.83383
2.83378
2.83372
2.83364
2.83354
2.83339
2.83322
2.83299
2.83272
2.83238
2.83198
2.8315
2.83094
2.83028
2.82952
2.82864
2.82765
2.82653
2.8254
2.82451
2.8257
2.84699
2.84818
2.86555
2.88176
2.94197
3.11078
3.34646
3.29656
3.06973
2.94458
2.89987
2.88506
2.86727
2.86381
2.83951
2.83574
2.83526
2.83547
2.83567
2.83584
2.83593
2.83595
2.83592
2.83584
2.83573
2.83559
2.83543
2.83527
2.83511
2.83495
2.83481
2.83468
2.83456
2.83445
2.83437
2.83432
2.8343
2.77112
2.77112
2.7711
2.77106
2.771
2.77093
2.77084
2.77071
2.77055
2.77034
2.77008
2.76977
2.76939
2.76893
2.7684
2.76777
2.76703
2.76619
2.76523
2.76416
2.76312
2.76233
2.76361
2.78349
2.78756
2.81164
2.86426
3.1281
4.1491
8.63291
7.51189
4.08585
3.05263
2.87974
2.83662
2.81196
2.80534
2.78132
2.77609
2.77462
2.77435
2.77421
2.77411
2.774
2.77387
2.7737
2.77352
2.77332
2.7731
2.77289
2.77267
2.77246
2.77227
2.7721
2.77194
2.77181
2.77169
2.77159
2.77153
2.77152
2.71113
2.71113
2.7111
2.71107
2.71102
2.71096
2.71088
2.71077
2.71062
2.71043
2.7102
2.70991
2.70955
2.70913
2.70863
2.70803
2.70734
2.70653
2.70561
2.70459
2.70362
2.70286
2.70414
2.72303
2.73057
2.76646
2.88486
3.71452
11.7349
15.1062
3.43455
2.89009
2.798
2.76077
2.75094
2.7264
2.71959
2.71692
2.71609
2.71554
2.71515
2.71481
2.7145
2.7142
2.7139
2.7136
2.71331
2.71304
2.71277
2.71252
2.71229
2.71209
2.71191
2.71176
2.71163
2.71153
2.71147
2.71144
2.65369
2.65369
2.65367
2.65365
2.65361
2.65356
2.65349
2.65339
2.65327
2.6531
2.65289
2.65262
2.65231
2.65192
2.65145
2.6509
2.65025
2.64948
2.64861
2.64761
2.64667
2.64589
2.64704
2.66492
2.67595
2.72287
2.90576
4.19885
85.1419
692.082
360.782
4.24033
2.92087
2.76775
2.71211
2.70013
2.67427
2.66595
2.66198
2.66053
2.65951
2.6588
2.65822
2.65772
2.65727
2.65686
2.65646
2.6561
2.65575
2.65543
2.65514
2.65488
2.65464
2.65444
2.65427
2.65412
2.65401
2.65394
2.65392
2.59865
2.59865
2.59864
2.59862
2.59859
2.59856
2.5985
2.59842
2.59832
2.59818
2.598
2.59777
2.59748
2.59713
2.59671
2.5962
2.5956
2.59488
2.59405
2.59307
2.59213
2.5913
2.59228
2.60917
2.62293
2.67318
2.91882
4.45368
69.4797
213.582
206.571
316.699
6.12782
2.9613
2.74486
2.66413
2.65234
2.62424
2.6147
2.60946
2.60737
2.60587
2.60484
2.60401
2.60332
2.60273
2.60219
2.6017
2.60126
2.60085
2.60048
2.60014
2.59984
2.59958
2.59935
2.59916
2.599
2.59888
2.5988
2.59878
2.54586
2.54587
2.54586
2.54585
2.54584
2.54581
2.54577
2.54571
2.54563
2.54552
2.54537
2.54517
2.54493
2.54463
2.54425
2.5438
2.54325
2.54258
2.54179
2.54082
2.5399
2.53903
2.54016
2.55663
2.57169
2.63023
3.04132
5.00158
26.3691
57.2512
79.3479
269.255
8.34215
3.01079
2.73219
2.61626
2.60745
2.5758
2.56537
2.55908
2.55636
2.55441
2.55305
2.55199
2.55112
2.55038
2.54974
2.54916
2.54864
2.54817
2.54775
2.54737
2.54704
2.54675
2.5465
2.54629
2.54612
2.54599
2.5459
2.54587
2.4952
2.4952
2.4952
2.4952
2.49519
2.49518
2.49516
2.49513
2.49507
2.49499
2.49487
2.49471
2.49451
2.49426
2.49394
2.49353
2.49302
2.49239
2.49166
2.49078
2.49002
2.48923
2.4917
2.50938
2.5306
2.65249
3.70839
22.344
98.1421
118.78
140.379
180.569
7.47436
3.0666
2.73308
2.5714
2.56561
2.52865
2.51762
2.51058
2.50726
2.50491
2.50327
2.50199
2.50096
2.50009
2.49934
2.49868
2.4981
2.49757
2.4971
2.49669
2.49632
2.49601
2.49574
2.49551
2.49533
2.49519
2.4951
2.49506
2.44652
2.44653
2.44654
2.44654
2.44655
2.44655
2.44655
2.44653
2.4465
2.44645
2.44637
2.44625
2.4461
2.44588
2.44561
2.44523
2.44478
2.44426
2.44366
2.44295
2.44242
2.44205
2.44796
2.46936
2.52354
2.80182
9.60224
90.9589
123.971
142.469
156.69
94.4248
5.93381
3.08973
2.73693
2.53346
2.52574
2.48283
2.47121
2.46374
2.45986
2.4572
2.45531
2.45386
2.45269
2.45171
2.45088
2.45014
2.4495
2.44892
2.44842
2.44797
2.44757
2.44724
2.44695
2.44671
2.44651
2.44636
2.44627
2.44623
2.39972
2.39973
2.39974
2.39976
2.39977
2.39979
2.39981
2.39982
2.39982
2.3998
2.39975
2.39968
2.39955
2.39935
2.39912
2.39885
2.39853
2.39815
2.3977
2.39719
2.39695
2.39758
2.40923
2.43727
2.55855
3.17595
22.4286
112.222
132.312
134.021
113.46
42.7341
4.80956
3.0736
2.71923
2.50527
2.48628
2.43825
2.42594
2.41829
2.41394
2.41107
2.40901
2.40745
2.40619
2.40512
2.40421
2.40342
2.40272
2.40211
2.40157
2.40109
2.40068
2.40032
2.40001
2.39976
2.39956
2.3994
2.3993
2.39926
2.35469
2.3547
2.35472
2.35474
2.35477
2.35481
2.35485
2.35488
2.3549
2.35491
2.35489
2.35485
2.35475
2.35462
2.35449
2.35433
2.35412
2.35388
2.35359
2.35331
2.35343
2.35567
2.37455
2.41162
2.6111
3.76967
32.5908
112.859
113.583
97.162
65.6401
19.6699
4.15475
3.03942
2.67876
2.48451
2.44611
2.39531
2.38181
2.37412
2.36948
2.36652
2.36431
2.36265
2.36132
2.3602
2.35924
2.3584
2.35767
2.35702
2.35645
2.35595
2.35551
2.35514
2.35483
2.35456
2.35435
2.35419
2.35409
2.35404
2.31132
2.31134
2.31136
2.31139
2.31144
2.31149
2.31155
2.3116
2.31165
2.31168
2.31167
2.31166
2.31164
2.31161
2.31156
2.31149
2.3114
2.3113
2.31119
2.31115
2.31164
2.31592
2.34227
2.38853
2.65011
4.30301
36.3338
105.393
94.1275
61.4992
32.8571
10.1782
3.90334
3.04107
2.63714
2.4652
2.40509
2.35385
2.33887
2.33124
2.32636
2.32339
2.32112
2.31938
2.31797
2.31681
2.31584
2.31499
2.31423
2.31356
2.31297
2.31245
2.312
2.31161
2.31128
2.31101
2.31079
2.31063
2.31052
2.31047
2.26954
2.26955
2.26958
2.26962
2.26968
2.26975
2.26982
2.2699
2.26996
2.27
2.27004
2.27009
2.27013
2.27018
2.27021
2.27023
2.27025
2.2703
2.27036
2.27053
2.27141
2.27783
2.31086
2.36465
2.66159
4.56867
35.7663
94.4374
87.4087
47.5315
19.6857
6.80749
4.21168
3.20431
2.61932
2.43832
2.36399
2.31367
2.29702
2.28954
2.28461
2.28159
2.27932
2.27757
2.27613
2.27494
2.27394
2.27308
2.27231
2.27163
2.27102
2.27049
2.27003
2.26964
2.2693
2.26903
2.2688
2.26863
2.26853
2.26847
2.22924
2.22926
2.22929
2.22934
2.22941
2.22949
2.22958
2.22967
2.22975
2.22982
2.22992
2.23002
2.23012
2.23023
2.23033
2.23045
2.23058
2.23076
2.23097
2.23132
2.2326
2.24093
2.27932
2.33814
2.6469
4.60042
32.6008
83.0496
87.0801
54.5594
21.4758
7.35393
5.13466
3.70148
2.64379
2.39656
2.32347
2.27455
2.25624
2.24894
2.24415
2.24114
2.23883
2.23712
2.23568
2.23447
2.23346
2.23259
2.23183
2.23115
2.23054
2.23
2.22953
2.22913
2.22879
2.22851
2.22829
2.22812
2.22801
2.22795
2.19035
2.19037
2.19041
2.19047
2.19055
2.19064
2.19072
2.19082
2.19094
2.19107
2.19121
2.19136
2.19151
2.19168
2.19185
2.19205
2.19228
2.19259
2.19293
2.19346
2.19506
2.20489
2.24721
2.30854
2.61605
4.56574
28.5531
70.5116
84.7832
61.4462
31.7702
12.2305
6.34781
4.57566
2.70486
2.34708
2.28378
2.23626
2.21658
2.20949
2.2049
2.20198
2.19969
2.19796
2.19651
2.19531
2.19433
2.19346
2.1927
2.19203
2.19143
2.19089
2.19042
2.19002
2.18968
2.1894
2.18917
2.189
2.18889
2.18883
2.1528
2.15282
2.15287
2.15293
2.15302
2.15311
2.15321
2.15334
2.15349
2.15366
2.15383
2.15402
2.15422
2.15444
2.15468
2.15495
2.15527
2.15566
2.15611
2.15682
2.15868
2.16952
2.21441
2.27661
2.57914
4.48053
24.5013
59.9394
79.4415
65.9664
43.1211
21.0871
8.60968
5.19087
2.78897
2.31619
2.24472
2.19866
2.17807
2.1712
2.16685
2.16402
2.16181
2.1601
2.15868
2.15748
2.15647
2.15563
2.15488
2.15421
2.15362
2.15309
2.15263
2.15223
2.15189
2.15161
2.15138
2.15121
2.1511
2.15104
2.11652
2.11654
2.11659
2.11666
2.11674
2.11684
2.11698
2.11713
2.11731
2.1175
2.11771
2.11793
2.11818
2.11845
2.11875
2.11908
2.11945
2.11992
2.12049
2.12133
2.12336
2.13486
2.18109
2.24331
2.53807
4.37408
20.9554
51.4333
73.4994
68.6116
51.5313
29.907
11.3485
5.43023
2.84525
2.32179
2.20603
2.16176
2.14073
2.13408
2.12997
2.12723
2.12511
2.12344
2.12206
2.12089
2.11988
2.11901
2.11829
2.11763
2.11705
2.11654
2.11609
2.11569
2.11535
2.11507
2.11485
2.11468
2.11457
2.1145
2.08144
2.08146
2.08151
2.08158
2.08167
2.0818
2.08195
2.08212
2.08232
2.08253
2.08277
2.08303
2.08332
2.08363
2.08398
2.08436
2.08478
2.08533
2.08601
2.08691
2.08908
2.10095
2.14738
2.20902
2.49488
4.26838
18.0516
44.522
67.305
67.6407
55.109
34.4485
12.6882
5.37554
2.8408
2.35258
2.16776
2.12565
2.10453
2.09811
2.09423
2.09157
2.08954
2.08792
2.08659
2.08545
2.08447
2.08361
2.08286
2.08223
2.08167
2.08117
2.08073
2.08034
2.08001
2.07973
2.07951
2.07935
2.07924
2.07917
2.0475
2.04752
2.04757
2.04764
2.04775
2.04789
2.04806
2.04825
2.04846
2.0487
2.04897
2.04926
2.04957
2.04993
2.05032
2.05074
2.05121
2.05183
2.05257
2.05351
2.05578
2.0678
2.11361
2.1743
2.45097
4.17985
15.7958
39.1265
60.9615
65.1589
53.8564
33.8746
12.0548
5.17161
2.80067
2.38412
2.13018
2.0904
2.06946
2.06323
2.05958
2.05701
2.05507
2.05351
2.05222
2.05112
2.05017
2.04933
2.04859
2.04795
2.04741
2.04692
2.04649
2.04613
2.0458
2.04553
2.04531
2.04515
2.04504
2.04498
2.01464
2.01466
2.01472
2.0148
2.01492
2.01507
2.01525
2.01545
2.01569
2.01595
2.01624
2.01655
2.0169
2.01729
2.0177
2.01815
2.01868
2.01936
2.02014
2.02109
2.02342
2.03544
2.08017
2.1397
2.40731
4.08427
14.1356
35.2384
55.2977
62.3135
50.883
30.3261
10.7474
4.92944
2.74865
2.40004
2.09355
2.05605
2.03545
2.02943
2.02599
2.0235
2.02166
2.02014
2.01891
2.01785
2.01693
2.01612
2.01541
2.01477
2.01422
2.01375
2.01334
2.01298
2.01268
2.01242
2.0122
2.01204
2.01194
2.01187
1.98282
1.98284
1.9829
1.98299
1.98312
1.98328
1.98347
1.98369
1.98393
1.98421
1.98452
1.98486
1.98524
1.98565
1.98609
1.98657
1.98715
1.98785
1.98867
1.98961
1.99198
2.00391
2.04736
2.10568
2.36464
3.99115
12.9674
32.772
50.9777
59.0073
46.8013
26.1368
9.51132
4.69442
2.69685
2.39644
2.05804
2.02259
2.00248
1.99663
1.99341
1.99099
1.98925
1.98779
1.98662
1.98559
1.98471
1.98393
1.98324
1.98262
1.98208
1.98161
1.98121
1.98087
1.98057
1.98033
1.98012
1.97997
1.97986
1.9798
1.95198
1.952
1.95207
1.95217
1.9523
1.95246
1.95267
1.9529
1.95316
1.95345
1.95378
1.95414
1.95453
1.95496
1.95541
1.95594
1.95656
1.95727
1.95813
1.95906
1.96143
1.97323
2.01538
2.07254
2.323
3.88803
12.1427
30.9927
47.3067
54.7774
42.4977
22.5694
8.55824
4.48425
2.65022
2.37659
2.02372
1.98997
1.97049
1.96482
1.9618
1.95945
1.95781
1.95641
1.95529
1.9543
1.95346
1.95271
1.95205
1.95145
1.95093
1.95046
1.95007
1.94974
1.94946
1.94923
1.94903
1.94888
1.94878
1.94871
1.92208
1.92211
1.92217
1.92228
1.92241
1.92259
1.9228
1.92304
1.92331
1.92362
1.92397
1.92434
1.92475
1.92518
1.92566
1.92622
1.92686
1.92759
1.92847
1.92938
1.93175
1.9434
1.9843
2.04047
2.28308
3.77213
11.5179
29.1447
43.7752
49.7616
39.1533
20.0232
7.8864
4.30193
2.60879
2.34572
1.99066
1.95816
1.93944
1.93396
1.93111
1.92885
1.9273
1.92595
1.92489
1.92395
1.92314
1.92242
1.92179
1.92122
1.92072
1.92027
1.91988
1.91955
1.91928
1.91906
1.91887
1.91873
1.91863
1.91857
1.89308
1.89311
1.89317
1.89328
1.89342
1.8936
1.89382
1.89407
1.89436
1.89468
1.89503
1.89542
1.89584
1.89628
1.8968
1.89737
1.89803
1.89876
1.89966
1.90055
1.90291
1.9144
1.95416
2.00959
2.24382
3.6497
10.9697
27.2595
40.2569
45.4222
35.6477
18.3386
7.41995
4.14733
2.57087
2.30849
1.95894
1.92715
1.90932
1.904
1.90132
1.89915
1.89769
1.89639
1.89539
1.89449
1.89372
1.89303
1.89243
1.89188
1.8914
1.89097
1.89059
1.89027
1.89
1.88979
1.88961
1.88948
1.88939
1.88932
1.86493
1.86496
1.86503
1.86514
1.86528
1.86547
1.8657
1.86595
1.86625
1.86658
1.86694
1.86734
1.86776
1.86823
1.86876
1.86935
1.87002
1.87076
1.87166
1.87254
1.87488
1.8862
1.92495
1.97997
2.20564
3.52737
10.4225
25.4047
36.7674
41.2861
32.5172
16.7094
7.07978
4.01935
2.53499
2.2687
1.92861
1.89702
1.88007
1.87492
1.87239
1.8703
1.86893
1.86769
1.86674
1.86589
1.86516
1.8645
1.86392
1.8634
1.86294
1.86253
1.86217
1.86185
1.86159
1.86137
1.86121
1.86109
1.861
1.86094
1.8376
1.83763
1.8377
1.83781
1.83796
1.83815
1.83838
1.83865
1.83895
1.83929
1.83966
1.84006
1.84049
1.84098
1.84153
1.84212
1.8428
1.84354
1.84445
1.84532
1.84763
1.85878
1.89663
1.95155
2.16888
3.87413
11.237
23.638
34.006
37.3671
27.5803
13.2546
6.15026
3.68648
2.41014
2.22795
1.89955
1.86785
1.85166
1.84669
1.8443
1.84229
1.841
1.83982
1.83892
1.83811
1.83742
1.83679
1.83624
1.83574
1.8353
1.83491
1.83456
1.83426
1.83401
1.8338
1.83363
1.83352
1.83344
1.83338
1.81105
1.81107
1.81115
1.81126
1.81142
1.81161
1.81185
1.81212
1.81243
1.81277
1.81315
1.81354
1.81399
1.8145
1.81505
1.81565
1.81634
1.81708
1.81799
1.81885
1.82112
1.83209
1.86912
1.94052
2.13278
3.76683
10.6977
22.2918
31.6831
34.6482
26.2192
12.1723
5.92368
3.60016
2.37729
2.18754
1.85494
1.83961
1.82406
1.81928
1.817
1.81509
1.81387
1.81274
1.8119
1.81112
1.81047
1.80988
1.80935
1.80888
1.80845
1.80808
1.80775
1.80746
1.80722
1.80702
1.80685
1.80674
1.80667
1.80661
1.78524
1.78527
1.78535
1.78546
1.78562
1.78582
1.78606
1.78633
1.78664
1.78699
1.78737
1.78777
1.78824
1.78875
1.78931
1.78991
1.79061
1.79134
1.79225
1.7931
1.79534
1.8061
1.8424
1.9137
2.28505
4.83514
13.3321
22.1316
30.225
29.8759
20.9591
9.62814
4.98076
3.15684
2.28341
2.00457
1.82979
1.8124
1.79725
1.79265
1.79049
1.78866
1.78751
1.78643
1.78564
1.7849
1.78428
1.78372
1.78322
1.78277
1.78236
1.782
1.78169
1.78142
1.78118
1.78099
1.78083
1.78072
1.78066
1.7806
1.76015
1.76018
1.76026
1.76038
1.76054
1.76074
1.76098
1.76126
1.76157
1.76192
1.7623
1.76271
1.76319
1.7637
1.76426
1.76487
1.76557
1.7663
1.76721
1.76804
1.77024
1.78079
1.81647
1.88765
2.24935
4.71043
12.7976
21.304
28.8118
27.2264
20.2744
9.23497
4.84748
3.09956
2.25033
1.97388
1.80548
1.78617
1.77119
1.76678
1.76472
1.76297
1.76188
1.76086
1.76011
1.75941
1.75883
1.75829
1.75781
1.75739
1.757
1.75666
1.75636
1.7561
1.75588
1.75569
1.75554
1.75543
1.75536
1.75531
1.73575
1.73578
1.73585
1.73597
1.73613
1.73634
1.73658
1.73686
1.73718
1.73753
1.73791
1.73833
1.73881
1.73932
1.73989
1.7405
1.7412
1.74192
1.74283
1.74365
1.7458
1.75614
1.79126
1.86236
2.2148
4.59736
12.3621
20.5103
27.1907
24.1558
19.6428
9.00697
4.75412
3.05273
2.22103
1.94507
1.78201
1.76087
1.74588
1.74165
1.73967
1.738
1.73697
1.736
1.73529
1.73462
1.73407
1.73356
1.73311
1.7327
1.73234
1.73201
1.73172
1.73148
1.73126
1.73108
1.73094
1.73084
1.73077
1.73071
1.712
1.71203
1.71211
1.71223
1.71239
1.7126
1.71284
1.71312
1.71344
1.71378
1.71417
1.71461
1.71508
1.7156
1.71617
1.71677
1.71747
1.71819
1.71909
1.7199
1.722
1.73213
1.76673
1.8378
2.18132
4.49376
12.0003
19.6479
25.3227
20.9048
18.9363
8.87523
4.69066
3.01491
2.19552
1.91796
1.75972
1.73649
1.72127
1.71722
1.71531
1.71373
1.71275
1.71182
1.71115
1.71052
1.70999
1.70951
1.70908
1.7087
1.70835
1.70804
1.70776
1.70752
1.70732
1.70715
1.70701
1.70691
1.70685
1.70679
1.68888
1.68891
1.68899
1.68911
1.68928
1.68948
1.68973
1.69001
1.69033
1.69067
1.69107
1.6915
1.69198
1.6925
1.69307
1.69367
1.69437
1.69508
1.69597
1.69677
1.69882
1.70873
1.74285
1.81394
2.14882
4.39745
11.6849
18.6074
23.4039
18.1907
18.0776
8.79205
4.64517
2.98297
2.17281
1.89239
1.73852
1.71305
1.69735
1.69347
1.69162
1.69011
1.68918
1.6883
1.68766
1.68707
1.68657
1.68611
1.6857
1.68533
1.685
1.68471
1.68444
1.68422
1.68402
1.68386
1.68373
1.68363
1.68356
1.6835
1.66637
1.6664
1.66648
1.6666
1.66677