/*--------------------------------*- C++ -*----------------------------------*\
  =========                 |
  \\      /  F ield         | OpenFOAM: The Open Source CFD Toolbox
   \\    /   O peration     | Website:  https://openfoam.org
    \\  /    A nd           | Version:  12
     \\/     M anipulation  |
\*---------------------------------------------------------------------------*/
FoamFile
{
    format      ascii;
    class       volScalarField;
    location    "160";
    object      p;
}
// * * * * * * * * * * * * * * * * * * * * * * * * * * * * * * * * * * * * * //

dimensions      [0 2 -2 0 0 0 0];

internalField   nonuniform List<scalar> 
16227
(
0.0519893
0.0520899
0.0522904
0.0525898
0.0529864
0.0534782
0.0540625
0.0547357
0.0554936
0.0563311
0.0572424
0.0582208
0.0592585
0.0603474
0.061478
0.0626398
0.0638218
0.0650118
0.0661969
0.067364
0.0684991
0.0695884
0.070618
0.0715745
0.0724451
0.073218
0.0738827
0.0744304
0.0748539
0.0751482
0.0753105
0.0753402
0.0752389
0.0750104
0.0746607
0.0741974
0.0736299
0.0729687
0.0722257
0.0714132
0.0705441
0.0696315
0.0686884
0.0677276
0.0667614
0.0658015
0.0648589
0.0639439
0.0630658
0.0622331
0.0614536
0.0607339
0.0600801
0.0594973
0.0589899
0.0585617
0.0582157
0.0579542
0.0577789
0.0576909
0.0519166
0.0520175
0.0522187
0.0525193
0.0529175
0.0534115
0.0539983
0.0546746
0.0554361
0.0562779
0.0571941
0.0581781
0.0592221
0.060318
0.0614561
0.0626263
0.0638171
0.0650164
0.0662114
0.0673885
0.0685338
0.0696333
0.0706728
0.0716386
0.0725178
0.0732984
0.0739695
0.0745223
0.0749493
0.0752455
0.0754081
0.0754363
0.075332
0.0750991
0.0747436
0.0742733
0.0736978
0.073028
0.0722757
0.0714536
0.0705748
0.0696525
0.0687
0.0677301
0.0667553
0.0657873
0.0648371
0.0639152
0.0630308
0.0621925
0.061408
0.0606839
0.0600262
0.0594402
0.0589302
0.0584998
0.0581521
0.0578894
0.0577133
0.0576248
0.0517543
0.051856
0.0520589
0.0523621
0.052764
0.0532625
0.053855
0.0545382
0.0553078
0.056159
0.057086
0.0580824
0.0591404
0.0602517
0.0614067
0.0625952
0.0638057
0.0650258
0.0662425
0.067442
0.06861
0.069732
0.0707934
0.0717801
0.0726784
0.0734759
0.0741614
0.0747255
0.0751605
0.0754612
0.0756244
0.0756497
0.0755388
0.075296
0.0749276
0.0744419
0.0738489
0.0731598
0.0723871
0.0715438
0.0706435
0.0696999
0.0687265
0.0677365
0.0667425
0.0657566
0.0647899
0.0638527
0.0629546
0.0621039
0.0613083
0.0605745
0.0599085
0.0593154
0.0587996
0.0583644
0.058013
0.0577474
0.0575695
0.0574801
0.0514801
0.0515832
0.051789
0.0520966
0.0525045
0.0530107
0.0536128
0.0543074
0.0550906
0.0559576
0.0569028
0.05792
0.0590015
0.0601386
0.061322
0.0625414
0.0637851
0.0650404
0.0662938
0.0675311
0.0687377
0.069898
0.0709966
0.0720185
0.0729494
0.0737758
0.0744857
0.0750691
0.0755178
0.075826
0.0759904
0.0760106
0.0758886
0.075629
0.0752388
0.0747267
0.0741037
0.0733819
0.0725745
0.0716953
0.0707587
0.0697791
0.0687705
0.0677467
0.0667207
0.0657047
0.0647102
0.0637476
0.0628264
0.0619551
0.0611411
0.0603912
0.0597113
0.0591066
0.058581
0.058138
0.0577803
0.0575101
0.057329
0.0572381
0.0510964
0.0512014
0.051411
0.0517246
0.0521407
0.0526574
0.0532724
0.0539827
0.0547844
0.055673
0.0566432
0.0576891
0.0588028
0.0599758
0.0611987
0.062461
0.0637509
0.0650553
0.0663601
0.0676511
0.0689121
0.0701266
0.071278
0.0723502
0.0733275
0.0741953
0.0749403
0.0755515
0.0760199
0.0763392
0.0765057
0.0765189
0.0763813
0.0760981
0.0756769
0.0751277
0.0744624
0.0736944
0.072838
0.0719083
0.0709207
0.0698905
0.0688327
0.0677615
0.0666907
0.0656328
0.0645995
0.0636016
0.0626484
0.0617485
0.0609091
0.060137
0.0594382
0.0588175
0.0582784
0.0578244
0.0574581
0.0571816
0.0569963
0.0569032
0.0506071
0.0507144
0.0509288
0.0512496
0.0516756
0.0522052
0.0528361
0.0535656
0.0543903
0.0553057
0.056307
0.0573885
0.0585425
0.0597606
0.0610334
0.0623503
0.063699
0.0650659
0.0664371
0.0677973
0.0691289
0.0704138
0.0716341
0.0727721
0.0738104
0.0747326
0.0755241
0.0761722
0.0766669
0.0770011
0.0771707
0.0771751
0.0770174
0.0767034
0.076242
0.0756445
0.0749242
0.0740961
0.0731763
0.0721813
0.0711279
0.0700325
0.0689114
0.0677797
0.0666515
0.0655403
0.0644578
0.0634149
0.0624213
0.0614852
0.0606138
0.0598139
0.0590916
0.0584506
0.0578947
0.0574271
0.0570502
0.0567657
0.0565752
0.0564795
0.050011
0.050121
0.0503409
0.0506703
0.0511079
0.0516525
0.052302
0.0530542
0.0539058
0.0548531
0.0558912
0.0570149
0.0582176
0.0594903
0.0608236
0.0622067
0.0636271
0.0650711
0.0665244
0.0679703
0.0693895
0.0707624
0.0720692
0.0732901
0.0744054
0.0753966
0.076247
0.076942
0.0774701
0.0778233
0.0779966
0.0779898
0.0778064
0.0774532
0.0769408
0.0762821
0.0754925
0.074589
0.0735896
0.072513
0.0713776
0.0702015
0.0690021
0.0677958
0.0665975
0.065421
0.0642787
0.0631815
0.062139
0.0611592
0.0602495
0.0594168
0.0586663
0.0580014
0.0574256
0.0569419
0.0565523
0.0562586
0.0560619
0.0559632
0.0493047
0.0494178
0.0496439
0.0499828
0.0504336
0.0509952
0.051666
0.052444
0.0533266
0.0543104
0.0553911
0.0565639
0.057823
0.0591597
0.0605645
0.0620263
0.0635322
0.065069
0.0666213
0.0681707
0.0696965
0.0711771
0.07259
0.0739131
0.0751237
0.0762005
0.0771239
0.0778771
0.0784465
0.0788228
0.0790004
0.078979
0.0787628
0.0783605
0.077784
0.0770489
0.0761732
0.0751764
0.0740791
0.0729025
0.0716672
0.0703931
0.0690993
0.0678034
0.0665213
0.0652673
0.0640542
0.0628931
0.0617932
0.0607625
0.0598086
0.0589382
0.0581551
0.0574627
0.0568642
0.0563622
0.0559583
0.0556541
0.0554505
0.0553484
0.0484844
0.0486008
0.0488337
0.049183
0.0496482
0.0502285
0.0509227
0.0517293
0.0526464
0.0536711
0.0547999
0.0560282
0.0573511
0.0587616
0.060249
0.0618021
0.063408
0.0650539
0.0667231
0.0683958
0.0700494
0.0716596
0.0732011
0.0746484
0.0759754
0.0771569
0.0781699
0.0789945
0.0796145
0.0800189
0.080201
0.0801608
0.0799036
0.0794398
0.0787842
0.077955
0.0769737
0.075863
0.0746471
0.0733498
0.0719946
0.0706038
0.0691981
0.0677966
0.0664163
0.0650721
0.0637771
0.0625423
0.0613767
0.0602883
0.0592849
0.058372
0.0575524
0.0568294
0.0562058
0.0556835
0.055264
0.0549482
0.0547372
0.0546312
0.0475458
0.0476657
0.0479057
0.0482661
0.0487465
0.0493466
0.0500659
0.0509034
0.0518578
0.0529272
0.0541088
0.0553988
0.0567928
0.0582857
0.0598664
0.0615234
0.0632443
0.0650166
0.0668222
0.06864
0.0704447
0.0722095
0.0739053
0.0755025
0.0769705
0.0782794
0.0794018
0.0803136
0.0809954
0.0814337
0.081621
0.081557
0.0812488
0.080709
0.0799561
0.0790121
0.0779025
0.0766546
0.0752963
0.0738552
0.072358
0.0708298
0.0692934
0.0677694
0.0662759
0.0648284
0.0634403
0.0621222
0.0608829
0.0597305
0.0586729
0.057713
0.0568533
0.0560971
0.0554464
0.0549024
0.0544661
0.0541382
0.0539191
0.0538092
0.0464848
0.0466083
0.0468556
0.0472272
0.0477232
0.0483438
0.0490892
0.0499589
0.0509528
0.0520698
0.053308
0.0546648
0.0561368
0.0577197
0.0594038
0.0611773
0.0630294
0.0649463
0.0669093
0.0688957
0.0708779
0.0728257
0.0747055
0.0764828
0.0781211
0.0795848
0.0808404
0.0818587
0.0826157
0.0830952
0.0832879
0.083194
0.0828224
0.0821894
0.0813174
0.0802338
0.0789695
0.0775568
0.0760289
0.0744178
0.072754
0.0710657
0.0693782
0.0677137
0.0660913
0.0645273
0.0630347
0.0616239
0.0603039
0.0590822
0.0579654
0.0569545
0.0560522
0.055261
0.0545817
0.0540149
0.0535612
0.0532205
0.0529933
0.0528793
0.0452976
0.0454245
0.045679
0.0460617
0.0465733
0.0472144
0.047986
0.0488887
0.0499231
0.0510895
0.0523872
0.0538148
0.0553701
0.0570499
0.058848
0.060751
0.0627499
0.0648302
0.0669732
0.0691542
0.0713433
0.0735066
0.0756053
0.0775985
0.0794424
0.0810937
0.0825117
0.0836599
0.0845087
0.0850378
0.0852361
0.0851043
0.084654
0.083906
0.0828883
0.0816352
0.0801843
0.0785747
0.0768455
0.0750343
0.0731761
0.0713027
0.0694419
0.0676177
0.0658505
0.0641563
0.0625478
0.0610356
0.0596288
0.0583333
0.057153
0.0560884
0.0551418
0.0543142
0.0536056
0.0530157
0.0525442
0.0521908
0.0519552
0.0518372
0.0439809
0.0441112
0.0443723
0.0447656
0.0452919
0.0459528
0.04675
0.0476853
0.0487602
0.0499766
0.0513354
0.0528366
0.0544797
0.056263
0.0581832
0.0602282
0.0623892
0.0646523
0.0669989
0.0694028
0.0718329
0.0742496
0.0766081
0.0788596
0.0809517
0.0828312
0.0844472
0.0857542
0.0867151
0.0873042
0.0875079
0.0873277
0.0867789
0.0858884
0.0846922
0.0832329
0.081557
0.0797121
0.0777446
0.0756988
0.0736148
0.0715284
0.0694704
0.0674665
0.0655376
0.0636997
0.061965
0.0603441
0.0588454
0.0574715
0.0562246
0.0551048
0.0541132
0.053249
0.0525111
0.0518983
0.0514096
0.0510438
0.0508002
0.0506783
0.0425317
0.0426649
0.042932
0.0433347
0.0438745
0.0445536
0.0453747
0.0463409
0.047455
0.0487205
0.0501402
0.0517161
0.0534497
0.0553415
0.0573899
0.0595885
0.0619271
0.0643931
0.0669683
0.0696267
0.0723351
0.0750485
0.0777151
0.0802763
0.0826688
0.0848266
0.0866853
0.0881875
0.0892855
0.0899471
0.0901551
0.0899123
0.0892395
0.0881718
0.0867556
0.0850449
0.0830975
0.0809714
0.0787223
0.076402
0.0740567
0.0717267
0.0694458
0.067241
0.0651335
0.0631387
0.0612689
0.059534
0.0579385
0.0564828
0.0551683
0.0539934
0.0529573
0.0520573
0.0512911
0.0506567
0.0501517
0.0497743
0.0495234
0.0493978
0.0409471
0.0410827
0.0413547
0.0417651
0.0423161
0.0430109
0.0438531
0.0448472
0.0459975
0.0473093
0.0487879
0.0504375
0.0522621
0.0542649
0.0564475
0.0588081
0.061338
0.0640266
0.066857
0.0698039
0.0728323
0.0758922
0.0789241
0.0818577
0.0846154
0.087114
0.0892721
0.0910154
0.0922826
0.0930319
0.093242
0.0929178
0.0920874
0.0907976
0.0891091
0.0870909
0.0848152
0.082353
0.0797712
0.0771305
0.0744841
0.071877
0.0693456
0.0669181
0.0646146
0.062451
0.0604395
0.0585863
0.056891
0.0553527
0.0539716
0.0527431
0.0516643
0.0507307
0.0499387
0.0492846
0.0487651
0.0483778
0.0481205
0.0479918
0.0392246
0.0393617
0.039637
0.0400529
0.0406123
0.0413191
0.0421782
0.0431955
0.0443773
0.0457306
0.0472633
0.0489828
0.0508961
0.0530098
0.0553293
0.0578577
0.0605904
0.0635198
0.0666318
0.0699032
0.0732981
0.0767622
0.0802277
0.0836104
0.0868143
0.0897337
0.0922635
0.0943073
0.0957846
0.0966409
0.0968491
0.0964174
0.0953848
0.0938147
0.0917871
0.0893911
0.0867176
0.0838536
0.0808792
0.0778655
0.0748731
0.0719522
0.0691416
0.0664693
0.0639547
0.0616132
0.0594551
0.0574799
0.055684
0.0540656
0.0526209
0.0513424
0.0502247
0.0492614
0.048447
0.0477765
0.0472454
0.04685
0.0465878
0.0464567
0.0373623
0.0375
0.0377766
0.0381949
0.0387587
0.0394728
0.0403432
0.0413773
0.0425835
0.043971
0.0455505
0.0473329
0.0493288
0.0515492
0.0540041
0.0567028
0.0596461
0.0628315
0.06625
0.0698829
0.0736949
0.0776293
0.0816098
0.0855364
0.0892889
0.0927319
0.0957278
0.0981495
0.0998903
0.100878
0.101077
0.100502
0.0992075
0.09728
0.0948272
0.0919653
0.0888088
0.0854643
0.082027
0.0785798
0.0751918
0.0719179
0.0687982
0.06586
0.0631222
0.0605975
0.0582893
0.0561915
0.0542982
0.052605
0.0511022
0.0497795
0.0486288
0.0476414
0.0468099
0.0461274
0.0455882
0.0451877
0.0449224
0.04479
0.0353593
0.0354964
0.0357718
0.036189
0.0367523
0.0374676
0.038342
0.0393846
0.0406059
0.0420176
0.0436331
0.0454673
0.0475355
0.0498534
0.052437
0.055303
0.0584593
0.0619111
0.0656571
0.069686
0.0739673
0.0784482
0.0830414
0.0876298
0.092062
0.0961626
0.0997492
0.102651
0.104726
0.105875
0.106055
0.105286
0.103647
0.101259
0.0982691
0.0948299
0.0910865
0.0871674
0.0831852
0.0792357
0.0753974
0.0717288
0.0682696
0.0650468
0.0620782
0.0593686
0.0569112
0.0546957
0.0527129
0.0509531
0.0494007
0.0480425
0.0468673
0.0458636
0.0450217
0.0443331
0.0437905
0.0433884
0.0431224
0.0429898
0.033216
0.033351
0.0336225
0.0340341
0.0345911
0.0353001
0.0361697
0.0372104
0.0384349
0.0398575
0.0414947
0.0433654
0.0454901
0.0478903
0.050589
0.0536118
0.056976
0.0606969
0.0647852
0.0692414
0.0740458
0.0791536
0.0844732
0.0898698
0.0951521
0.100088
0.104431
0.107951
0.110453
0.111804
0.111945
0.11091
0.108813
0.105826
0.102152
0.0979953
0.0935387
0.0889339
0.0843112
0.0797814
0.0754327
0.0713271
0.0675023
0.0639825
0.0607805
0.0578868
0.0552863
0.0529642
0.050905
0.049091
0.0475016
0.0461201
0.0449315
0.0439213
0.0430777
0.0423902
0.0418501
0.0414506
0.0411869
0.0410556
0.0309343
0.0310655
0.0313296
0.0317307
0.0322745
0.0329687
0.0338228
0.0348491
0.0360621
0.0374789
0.0391194
0.0410064
0.0431659
0.045626
0.0484176
0.0515767
0.0551332
0.0591153
0.0635501
0.0684557
0.073832
0.0796492
0.0858251
0.0922115
0.0985679
0.104578
0.109902
0.114228
0.117287
0.118893
0.118967
0.11756
0.114843
0.111064
0.10651
0.101458
0.0961381
0.090718
0.0853436
0.0801445
0.0752213
0.0706386
0.0664297
0.0626097
0.0591764
0.056107
0.0533784
0.0509674
0.0488505
0.047
0.0453907
0.0440017
0.0428138
0.0418096
0.0409748
0.040297
0.0397662
0.0393746
0.0391166
0.0389881
0.0285175
0.0286432
0.0288962
0.0292809
0.0298038
0.030473
0.0312995
0.0322967
0.0334811
0.0348722
0.0364931
0.0383709
0.0405366
0.0430258
0.045878
0.0491404
0.0528594
0.057079
0.0618474
0.0672071
0.073187
0.0797879
0.0869633
0.0945679
0.102316
0.10972
0.116327
0.121713
0.125505
0.127435
0.127392
0.125459
0.121888
0.117049
0.111352
0.105182
0.0988403
0.092455
0.0861951
0.0802261
0.0746638
0.0695703
0.0649689
0.0608554
0.0572041
0.0539798
0.0511486
0.0486757
0.0465256
0.0446622
0.0430552
0.0416784
0.0405084
0.039525
0.0387114
0.0380536
0.0375401
0.0371622
0.0369137
0.0367902
0.0259709
0.0260889
0.0263268
0.026689
0.0271822
0.0278155
0.0286006
0.0295522
0.030688
0.03203
0.0336041
0.0354412
0.0375777
0.0400561
0.0429251
0.046243
0.0500765
0.0544885
0.0595531
0.0653454
0.0719359
0.0793771
0.0876827
0.0967643
0.106295
0.115544
0.123862
0.130686
0.135479
0.13785
0.137632
0.134952
0.130198
0.123922
0.116722
0.109138
0.101588
0.0940512
0.086745
0.0799003
0.0736419
0.0680159
0.0630259
0.0586363
0.0547963
0.0514531
0.0485564
0.0460579
0.0439076
0.0420618
0.0404844
0.0391435
0.038012
0.0370665
0.0362885
0.0356621
0.0351749
0.0348174
0.0345827
0.0344662
0.0233019
0.0234101
0.0236284
0.0239612
0.0244156
0.0250011
0.0257299
0.0266173
0.0276825
0.0289489
0.0304448
0.0322044
0.0342687
0.0366867
0.0395161
0.0428263
0.0467036
0.0512354
0.0565252
0.0626884
0.0698508
0.0781418
0.0876692
0.0984958
0.110657
0.122249
0.132819
0.141558
0.147688
0.15062
0.150098
0.146314
0.139867
0.131601
0.122415
0.113014
0.104323
0.0953804
0.0868215
0.0789893
0.0719921
0.0658361
0.0604834
0.0558579
0.0518801
0.0484724
0.0455628
0.0430849
0.0409766
0.0391861
0.0376709
0.0363937
0.035324
0.0344361
0.0337096
0.0331274
0.0326763
0.0323463
0.0321301
0.0320229
0.0205201
0.0206162
0.0208103
0.0211068
0.0215128
0.0220379
0.0226943
0.023498
0.0244686
0.0256304
0.0270131
0.0286534
0.0305954
0.0328937
0.0356137
0.038835
0.0426606
0.0472065
0.0526084
0.0590267
0.0666473
0.0757076
0.0864475
0.0990565
0.108902
0.123253
0.13682
0.148575
0.157434
0.162465
0.16311
0.159433
0.15214
0.142368
0.131394
0.120201
0.107134
0.0962359
0.0861857
0.0772515
0.0694993
0.0628545
0.0572034
0.0524177
0.0483806
0.0449836
0.0421294
0.0397318
0.0377174
0.0360272
0.0346118
0.0334299
0.0324481
0.0316391
0.0309814
0.030457
0.0300525
0.0297574
0.0295647
0.0294693
0.0176374
0.0177192
0.0178845
0.0181377
0.0184853
0.0189371
0.019505
0.0202045
0.0210554
0.0220819
0.0233138
0.0247888
0.0265528
0.0286634
0.0311918
0.0342256
0.0378784
0.0422934
0.0476434
0.0541356
0.0620032
0.0715769
0.0832817
0.0940666
0.109408
0.127579
0.145919
0.162142
0.174716
0.182092
0.183248
0.178222
0.168177
0.154983
0.140709
0.127073
0.113412
0.09641
0.0844615
0.0743583
0.0659028
0.0588688
0.0530375
0.0482117
0.0442267
0.0409401
0.038226
0.0359812
0.0341226
0.0325837
0.0313103
0.0302582
0.0293925
0.0286853
0.0281143
0.0276618
0.0273145
0.0270623
0.0268979
0.0268168
0.0146681
0.0147334
0.0148654
0.0150682
0.015348
0.0157138
0.0161769
0.016752
0.0174577
0.0183174
0.0193598
0.0206214
0.022148
0.0239967
0.0262408
0.0289726
0.0323113
0.0364132
0.0414889
0.0478011
0.0556303
0.065318
0.0777518
0.090158
0.107933
0.127449
0.151787
0.173714
0.191676
0.203172
0.206175
0.200383
0.187398
0.170037
0.151459
0.133815
0.115445
0.0950006
0.0810006
0.0698477
0.0608757
0.0536537
0.0478322
0.0431397
0.0393577
0.0363057
0.0338344
0.0318276
0.0301945
0.0288633
0.0277772
0.0268915
0.0261712
0.0255888
0.0251228
0.0247563
0.0244769
0.0242748
0.0241438
0.0240793
0.0116286
0.0116753
0.0117697
0.0119157
0.0121186
0.0123864
0.0127293
0.0131604
0.0136965
0.0143587
0.0151733
0.0161736
0.017402
0.0189121
0.0207737
0.0230772
0.0259416
0.0295234
0.0340469
0.0398378
0.0472692
0.0566034
0.0693411
0.0836438
0.10412
0.125571
0.15759
0.189106
0.216777
0.235605
0.241454
0.233577
0.214985
0.190579
0.165122
0.139637
0.115122
0.0901065
0.0749108
0.0631466
0.0540615
0.0469837
0.0414489
0.0371215
0.0337313
0.0310637
0.0289546
0.0272813
0.0259488
0.0248845
0.0240327
0.0233501
0.0228042
0.0223692
0.0220257
0.0217586
0.0215569
0.0214122
0.0213188
0.0212732
0.00853734
0.0085636
0.00861674
0.00869995
0.00881776
0.00897682
0.00918547
0.00945488
0.00979886
0.0102354
0.0107865
0.0114804
0.0123529
0.0134501
0.0148318
0.0165778
0.0187973
0.0216341
0.0252914
0.0301226
0.0366499
0.0450525
0.057492
0.0730016
0.0955862
0.122049
0.162954
0.207648
0.250348
0.280791
0.29015
0.276959
0.247672
0.211299
0.175135
0.139302
0.110235
0.0807128
0.065314
0.0537065
0.0451404
0.0386735
0.0337939
0.0301211
0.0273423
0.0252279
0.0236117
0.0223721
0.0214172
0.0206791
0.020107
0.0196628
0.0193181
0.0190512
0.0188461
0.0186903
0.0185752
0.0184939
0.0184423
0.0184174
0.00541468
0.00541895
0.00542763
0.00544314
0.00546896
0.00550999
0.00557261
0.00566513
0.00579799
0.00598467
0.00624168
0.00659001
0.00705625
0.00767422
0.00848835
0.00955733
0.0109662
0.0128318
0.0153031
0.0186737
0.0235776
0.0300716
0.0409966
0.0565938
0.079144
0.110711
0.161601
0.225977
0.294671
0.346431
0.360791
0.335426
0.286167
0.230624
0.179835
0.131462
0.0989577
0.0657306
0.0515721
0.0411577
0.0339081
0.0286341
0.0248562
0.0221649
0.0202361
0.0188525
0.0178616
0.0171539
0.0166497
0.0162926
0.0160415
0.0158665
0.0157465
0.0156653
0.0156115
0.0155768
0.0155553
0.0155424
0.0155355
0.0155327
0.00228254
0.00226363
0.00222541
0.00216946
0.0020979
0.00201391
0.0019213
0.00182535
0.00173242
0.00165069
0.00159018
0.00156292
0.00158395
0.00167184
0.00184979
0.00214659
0.00260685
0.00329916
0.00428811
0.00570694
0.00813132
0.0112999
0.0186539
0.0321083
0.0499327
0.0840119
0.143165
0.23553
0.352087
0.448237
0.469652
0.414552
0.327243
0.242974
0.174116
0.112831
0.0791464
0.0443958
0.0334064
0.0254011
0.0203634
0.0169376
0.0147395
0.0133641
0.0125218
0.0120388
0.011795
0.0117063
0.0117159
0.0117853
0.0118881
0.0120067
0.0121287
0.012246
0.0123531
0.0124462
0.012523
0.0125817
0.0126216
0.0126419
-0.000835832
-0.000878746
-0.000965458
-0.00109536
-0.00126772
-0.00148137
-0.00173507
-0.00202699
-0.00235517
-0.00271697
-0.0031097
-0.00353082
-0.00397807
-0.00445023
-0.00494788
-0.0054781
-0.00605055
-0.00666596
-0.00737334
-0.00828053
-0.00907902
-0.0106833
-0.00939704
-0.00182564
0.00340176
0.0310971
0.0861111
0.208973
0.416324
0.620168
0.649447
0.514591
0.356614
0.235413
0.149926
0.0793863
0.0489394
0.0164757
0.0109484
0.00667687
0.00478877
0.00386246
0.00369308
0.00393249
0.0043809
0.00493962
0.00553883
0.00613512
0.00670357
0.00723043
0.00770876
0.00813529
0.0085096
0.00883222
0.00910479
0.00932882
0.00950604
0.00963769
0.00972506
0.0097689
-0.00391637
-0.0039836
-0.0041195
-0.00432438
-0.00459899
-0.0049442
-0.00536144
-0.00585232
-0.00641928
-0.0070654
-0.00779511
-0.00861512
-0.00953574
-0.0105726
-0.0117493
-0.0131081
-0.0147165
-0.0166561
-0.0190984
-0.0224235
-0.0267369
-0.0338823
-0.0403912
-0.0433655
-0.061456
-0.0583117
-0.0464778
0.0705023
0.424958
0.942887
0.963132
0.592997
0.330202
0.186061
0.0986243
0.0282881
0.00768302
-0.0173406
-0.0150784
-0.0143537
-0.0122174
-0.0100901
-0.00788317
-0.00581321
-0.00393418
-0.00224423
-0.00074661
0.000568509
0.00171609
0.00271233
0.00357228
0.00430974
0.00493723
0.005465
0.00590231
0.00625623
0.00653286
0.00673654
0.00687085
0.00693784
-0.00693452
-0.00702592
-0.00721069
-0.00749009
-0.0078663
-0.00834221
-0.00892186
-0.00961015
-0.0104137
-0.0113408
-0.0124023
-0.0136131
-0.0149938
-0.0165741
-0.0183955
-0.020526
-0.0230792
-0.0262047
-0.0301673
-0.0355573
-0.0428934
-0.054952
-0.068538
-0.0848185
-0.133354
-0.179493
-0.285668
-0.351579
-0.0624158
1.38585
1.42795
0.370458
0.161857
0.0757129
0.0165909
-0.0391088
-0.0425535
-0.054903
-0.0431143
-0.036497
-0.0297181
-0.0242116
-0.0194564
-0.0154683
-0.0121135
-0.00927529
-0.00687788
-0.0048505
-0.0031336
-0.0016791
-0.000448553
0.000589711
0.00146113
0.00218622
0.00278157
0.00326
0.00363179
0.00390444
0.00408359
0.00417274
-0.00986568
-0.00998064
-0.010213
-0.010565
-0.0110401
-0.0116432
-0.0123807
-0.0132605
-0.0142931
-0.0154909
-0.0168703
-0.0184522
-0.0202644
-0.022345
-0.0247449
-0.027541
-0.0308645
-0.0348927
-0.039908
-0.0465373
-0.0554815
-0.0699939
-0.0863769
-0.113236
-0.1845
-0.285585
-0.562145
-1.10618
-1.99003
-0.789435
-0.11794
-0.0714359
-0.0831226
-0.11462
-0.0967285
-0.0926593
-0.0707644
-0.0580566
-0.0464945
-0.0376391
-0.030402
-0.0245727
-0.0198158
-0.0158983
-0.0126624
-0.00997402
-0.00773048
-0.00585342
-0.00428148
-0.0029665
-0.00187051
-0.000963768
-0.000222801
0.000370404
0.000830003
0.00116624
0.00138686
0.00149648
-0.0126858
-0.0128232
-0.013101
-0.0135223
-0.0140917
-0.0148159
-0.0157035
-0.0167652
-0.0180143
-0.0194672
-0.0211439
-0.0230691
-0.0252741
-0.0277993
-0.0306947
-0.0340269
-0.0379085
-0.0424849
-0.0479555
-0.0547422
-0.0633176
-0.0765217
-0.0888161
-0.116159
-0.182074
-0.294853
-0.629807
-1.42371
-3.75077
-0.232832
-0.774047
-0.241368
-0.193849
-0.179107
-0.186954
-0.147898
-0.126189
-0.0951281
-0.0770508
-0.0611908
-0.0494468
-0.0400663
-0.0326568
-0.0267005
-0.0218633
-0.0179133
-0.0146604
-0.0119658
-0.00972559
-0.00785907
-0.00630425
-0.00501279
-0.00394729
-0.00307862
-0.00238444
-0.0018474
-0.0014549
-0.00119764
-0.00106985
-0.0153716
-0.0155301
-0.0158503
-0.0163361
-0.0169935
-0.0178306
-0.018858
-0.0200885
-0.0215382
-0.0232261
-0.0251752
-0.0274123
-0.0299685
-0.0328818
-0.0361939
-0.0399469
-0.0442046
-0.0490298
-0.0544617
-0.0605217
-0.067101
-0.0757302
-0.0783576
-0.0936508
-0.121869
-0.172516
-0.335996
-0.732073
-1.86418
-2.98117
-0.619883
0.240829
-0.338788
-0.303868
-0.261661
-0.2456
-0.188854
-0.151229
-0.113471
-0.0915972
-0.072559
-0.0587913
-0.0478613
-0.039307
-0.0324724
-0.0269564
-0.0224715
-0.0187892
-0.0157472
-0.0132233
-0.0111238
-0.00937681
-0.00792709
-0.00673185
-0.005758
-0.00498003
-0.00437835
-0.00393875
-0.00365066
-0.00350761
-0.0179015
-0.0180791
-0.018438
-0.0189826
-0.01972
-0.0206598
-0.0218142
-0.0231979
-0.0248293
-0.0267298
-0.0289245
-0.0314413
-0.0343107
-0.0375661
-0.0412389
-0.0453451
-0.0498935
-0.0548496
-0.0600916
-0.0652163
-0.069543
-0.0729932
-0.0661002
-0.0638325
-0.0461734
0.000890325
0.122132
0.193933
-0.153515
-2.56194
-3.71409
-1.64971
-0.665615
-0.41908
-0.322005
-0.280376
-0.213137
-0.164513
-0.123829
-0.100313
-0.0797214
-0.0650678
-0.0533664
-0.0442284
-0.0369227
-0.0310243
-0.0262229
-0.0222736
-0.0190072
-0.0162933
-0.0140325
-0.0121489
-0.0105838
-0.00929217
-0.00823876
-0.0073966
-0.00674489
-0.00626848
-0.00595622
-0.00580116
-0.0202556
-0.0204501
-0.0208432
-0.0214398
-0.022248
-0.0232786
-0.0245452
-0.0260643
-0.0278565
-0.0299452
-0.0323577
-0.0351241
-0.0382749
-0.0418415
-0.0458505
-0.050304
-0.0551805
-0.0603821
-0.0657174
-0.0705324
-0.0740288
-0.075021
-0.0651501
-0.0515259
-0.0134451
0.0859425
0.351892
1.25694
0.463868
-1.68576
-2.76929
-1.58248
-0.759794
-0.451336
-0.334896
-0.282137
-0.216171
-0.164221
-0.125244
-0.102547
-0.0823218
-0.0680194
-0.056404
-0.0472938
-0.0399573
-0.033995
-0.0291103
-0.0250682
-0.0217085
-0.0189044
-0.0165587
-0.0145975
-0.0129629
-0.0116104
-0.0105049
-0.0096195
-0.00893329
-0.00843119
-0.00810179
-0.00793826
-0.0224161
-0.0226251
-0.0230473
-0.0236883
-0.0245569
-0.0256649
-0.0270271
-0.028662
-0.0305919
-0.0328429
-0.0354448
-0.0384313
-0.0418364
-0.045695
-0.0500398
-0.0548805
-0.0602078
-0.065923
-0.0719113
-0.0775254
-0.0824829
-0.0853538
-0.0812573
-0.0694061
-0.0500543
0.00753656
0.0552812
0.487722
0.531887
-0.661257
-1.12422
-0.915493
-0.568554
-0.371617
-0.28881
-0.248501
-0.197235
-0.150654
-0.118024
-0.0985352
-0.0805716
-0.0677705
-0.0570625
-0.0485614
-0.0416117
-0.0358868
-0.0311419
-0.0271744
-0.0238486
-0.0210512
-0.0186955
-0.0167147
-0.015056
-0.0136778
-0.0125475
-0.0116397
-0.0109348
-0.010418
-0.0100787
-0.00991012
-0.0243679
-0.0245888
-0.0250346
-0.0257115
-0.0266291
-0.0277997
-0.0292396
-0.0309687
-0.0330114
-0.0353963
-0.0381569
-0.0413319
-0.0449627
-0.049095
-0.053777
-0.0590427
-0.0649361
-0.0714209
-0.0785948
-0.0859711
-0.0942343
-0.102206
-0.109539
-0.109608
-0.130138
-0.163249
-0.366301
-0.809303
-0.546269
-0.263265
-0.593678
-0.489351
-0.323851
-0.227028
-0.200625
-0.187506
-0.160441
-0.126865
-0.103973
-0.0894528
-0.075235
-0.0648031
-0.0556722
-0.0482544
-0.0420356
-0.0367996
-0.0323842
-0.0286364
-0.0254561
-0.0227517
-0.0204537
-0.0185064
-0.0168651
-0.0154941
-0.0143646
-0.0134543
-0.0127453
-0.0122245
-0.011882
-0.0117118
-0.0260989
-0.0263286
-0.0267922
-0.027496
-0.0284501
-0.0296676
-0.0311656
-0.0329657
-0.0350938
-0.0375815
-0.040466
-0.0437922
-0.0476111
-0.0519826
-0.0569734
-0.0626521
-0.0691406
-0.076495
-0.0850907
-0.0945593
-0.106637
-0.120228
-0.139239
-0.15308
-0.205994
-0.298175
-0.529287
-0.913809
-0.745061
-0.804185
-0.410823
-0.214987
-0.119463
-0.0514192
-0.0919009
-0.114202
-0.114528
-0.0976552
-0.0859919
-0.0772356
-0.0675465
-0.0599202
-0.0527692
-0.046728
-0.0414694
-0.0368971
-0.0329503
-0.029532
-0.0265842
-0.0240425
-0.0218578
-0.019989
-0.0184014
-0.0170662
-0.0159602
-0.015065
-0.0143653
-0.0138499
-0.0135105
-0.0133417
-0.0275997
-0.0278352
-0.0283103
-0.0290315
-0.0300092
-0.0312569
-0.0327924
-0.0346381
-0.0368219
-0.0393776
-0.0423461
-0.0457773
-0.0497298
-0.0542765
-0.0595052
-0.0655183
-0.0725173
-0.0806163
-0.090467
-0.101643
-0.116765
-0.134279
-0.161553
-0.184662
-0.249475
-0.353805
-0.519648
-0.621344
-0.530398
-0.327648
-0.383277
-0.0496617
0.235479
0.126895
0.00877062
-0.0431779
-0.0683029
-0.0687427
-0.0675688
-0.0641448
-0.0589418
-0.0540841
-0.049009
-0.0444155
-0.0402047
-0.0363816
-0.0329834
-0.0299626
-0.027305
-0.0249746
-0.0229445
-0.0211884
-0.0196826
-0.0184065
-0.017343
-0.0164777
-0.0157986
-0.0152971
-0.014966
-0.0148012
-0.0288643
-0.0291024
-0.0295827
-0.0303115
-0.0312994
-0.0325599
-0.0341112
-0.0359763
-0.0381837
-0.0407691
-0.0437754
-0.0472538
-0.0512688
-0.0559011
-0.0612625
-0.0674683
-0.0747795
-0.0833011
-0.0939309
-0.10598
-0.122729
-0.141595
-0.172609
-0.198789
-0.260053
-0.353907
-0.456063
-0.405457
-0.432952
-0.241789
0.213803
0.528326
0.567387
0.227586
0.0780325
0.0105503
-0.03033
-0.0448833
-0.0516588
-0.0522242
-0.0507465
-0.0481916
-0.0450111
-0.0417531
-0.038548
-0.0354679
-0.0326361
-0.0300386
-0.0276991
-0.0256073
-0.0237571
-0.0221366
-0.0207325
-0.0195326
-0.0185257
-0.0177018
-0.0170526
-0.0165714
-0.0162531
-0.0160945
-0.0298899
-0.0301275
-0.0306064
-0.0313331
-0.0323177
-0.0335735
-0.0351185
-0.0369757
-0.0391731
-0.0417467
-0.0447385
-0.0481984
-0.0521951
-0.0568117
-0.0621735
-0.0683847
-0.0757429
-0.0842674
-0.0950735
-0.107053
-0.123977
-0.141866
-0.172861
-0.197963
-0.249909
-0.327589
-0.382969
-0.324595
-0.2734
-0.297951
0.23295
0.916631
0.560199
0.0955688
0.0924368
0.0376555
-0.00681415
-0.028907
-0.0400645
-0.0428083
-0.0438977
-0.0429302
-0.0412596
-0.0390926
-0.0367658
-0.034356
-0.0320538
-0.0298665
-0.0278463
-0.026001
-0.0243416
-0.0228684
-0.0215778
-0.0204649
-0.0195241
-0.0187498
-0.0181369
-0.017681
-0.0173787
-0.0172279
-0.030677
-0.0309109
-0.0313822
-0.032097
-0.033065
-0.0342989
-0.035816
-0.0376381
-0.0397916
-0.0423104
-0.0452333
-0.0486101
-0.0525079
-0.0570015
-0.0622198
-0.0682347
-0.0753664
-0.0834806
-0.0938912
-0.104992
-0.120926
-0.136302
-0.164752
-0.186879
-0.228564
-0.289201
-0.311515
-0.257985
-0.132127
-0.0555916
0.484573
1.17013
0.156955
-0.090838
0.0458462
0.0356237
0.000538501
-0.0213057
-0.0332522
-0.0363728
-0.038814
-0.0386831
-0.0380545
-0.0366651
-0.0350422
-0.0331945
-0.0313575
-0.0295396
-0.0278189
-0.0262122
-0.0247423
-0.0234185
-0.0222455
-0.0212247
-0.0203553
-0.0196355
-0.0190629
-0.0186355
-0.0183515
-0.0182096
-0.0312291
-0.0314564
-0.0319141
-0.032608
-0.0335468
-0.0347425
-0.036211
-0.0379717
-0.0400485
-0.0424715
-0.0452768
-0.0485103
-0.052232
-0.0564994
-0.0614378
-0.0670708
-0.0737401
-0.0811078
-0.0906716
-0.100326
-0.114491
-0.126656
-0.150934
-0.169351
-0.20029
-0.243198
-0.241996
-0.183441
-0.0288776
0.158041
0.869508
1.27582
-0.312096
-0.189073
-0.0330522
0.00975021
-0.00568147
-0.0204202
-0.0304699
-0.0326237
-0.0354269
-0.0355238
-0.0355181
-0.0346041
-0.0334945
-0.0320804
-0.0306312
-0.0291325
-0.0276773
-0.0262897
-0.0249986
-0.0238191
-0.0227619
-0.0218334
-0.0210367
-0.0203732
-0.0198429
-0.0194458
-0.0191811
-0.0190488
-0.0315529
-0.0317709
-0.0322096
-0.0328741
-0.0337723
-0.0349149
-0.0363155
-0.0379905
-0.0399612
-0.0422536
-0.0448992
-0.0479353
-0.0514122
-0.055365
-0.0599116
-0.0650161
-0.0710497
-0.0774473
-0.0858741
-0.0937827
-0.105746
-0.114525
-0.133618
-0.147818
-0.166952
-0.191849
-0.176986
-0.136238
0.103408
0.491234
1.3016
0.520835
-0.606281
-0.275222
-0.114794
-0.027066
-0.0195534
-0.0233076
-0.0302134
-0.0307812
-0.0333483
-0.0332942
-0.0336113
-0.0329438
-0.0321879
-0.0310832
-0.0299335
-0.0286968
-0.0274694
-0.0262733
-0.0251439
-0.0240982
-0.0231506
-0.0223109
-0.0215852
-0.0209774
-0.0204895
-0.0201228
-0.019878
-0.0197554
-0.0316577
-0.031864
-0.0322789
-0.0329067
-0.0337543
-0.0348304
-0.0361459
-0.0377149
-0.0395555
-0.0416884
-0.0441382
-0.0469317
-0.05011
-0.0536829
-0.0577609
-0.062241
-0.067537
-0.072858
-0.0800005
-0.0860716
-0.0956693
-0.101205
-0.114733
-0.124242
-0.130931
-0.139092
-0.110845
-0.132667
0.024847
0.0332082
-0.341537
-0.987943
-0.729309
-0.354637
-0.177312
-0.0606533
-0.0342743
-0.0270306
-0.0308932
-0.0299478
-0.0320895
-0.031741
-0.0322069
-0.0316387
-0.0311214
-0.030228
-0.0293013
-0.0282669
-0.0272276
-0.0261949
-0.0252056
-0.0242795
-0.0234321
-0.022675
-0.0220164
-0.0214618
-0.0210148
-0.0206779
-0.0204525
-0.0203395
-0.0315554
-0.031748
-0.032135
-0.0327198
-0.0335081
-0.0345063
-0.0357234
-0.0371707
-0.0388619