/*--------------------------------*- C++ -*----------------------------------*\
  =========                 |
  \\      /  F ield         | OpenFOAM: The Open Source CFD Toolbox
   \\    /   O peration     | Website:  https://openfoam.org
    \\  /    A nd           | Version:  12
     \\/     M anipulation  |
\*---------------------------------------------------------------------------*/
FoamFile
{
    format      ascii;
    class       surfaceScalarField;
    location    "160";
    object      phi;
}
// * * * * * * * * * * * * * * * * * * * * * * * * * * * * * * * * * * * * * //

dimensions      [0 3 -1 0 0 0 0];

internalField   nonuniform List<scalar> 
32440
(
-1.11481e-07
0.0399881
1.78027e-06
0.0399881
-3.25921e-07
0.0399901
1.57125e-06
0.0399881
-5.26471e-07
0.0399901
1.38206e-06
0.0399981
1.29883e-06
0.0400101
1.2252e-06
0.0400101
3.16391e-06
0.0400101
5.1174e-06
0.04001
7.08885e-06
0.04001
3.07984e-06
0.040004
3.09055e-06
0.04
3.12519e-06
0.04
3.18655e-06
0.0399999
3.27752e-06
0.0399999
3.4008e-06
0.0399999
3.55888e-06
0.0399998
3.75386e-06
0.0399998
3.98714e-06
0.0399998
4.2593e-06
0.0399997
4.57007e-06
0.0399997
4.91868e-06
0.0399997
5.30326e-06
0.0399996
5.72079e-06
0.0399996
6.16709e-06
0.0399996
6.63689e-06
0.0399995
7.12421e-06
0.0399995
6.02131e-06
0.0400011
8.59325e-07
0.0400052
-1.87847e-07
0.040001
9.00291e-08
0.0399997
5.45483e-07
0.0399995
9.70574e-07
0.0399996
2.35787e-06
0.0399986
2.70071e-06
0.0399997
2.99358e-06
0.0399997
3.23181e-06
0.0399998
3.41188e-06
0.0399998
3.53141e-06
0.0399999
3.58911e-06
0.0399999
3.58473e-06
0.04
3.51895e-06
0.0400001
3.39327e-06
0.0400001
3.21015e-06
0.0400002
2.97244e-06
0.0400002
2.68337e-06
0.0400003
2.34685e-06
0.0400003
1.966e-06
0.0400004
1.54507e-06
0.0400004
1.08816e-06
0.0400005
-1.40075e-06
0.0400025
-7.91696e-06
0.0400065
-2.45699e-06
0.0400065
9.82642e-07
0.0400086
4.05395e-07
0.0400106
1.81523e-06
0.0399986
1.21527e-06
0.0399886
6.0868e-07
0.0399906
0.0399886
-1.10169e-06
0.0399892
-2.19577e-06
0.0399892
-3.2783e-06
0.0399912
-4.34269e-06
0.0399892
-3.38184e-06
0.0399891
-2.38899e-06
0.0399971
-1.3563e-06
0.0400091
-2.27536e-06
0.040011
-1.13604e-06
0.0400089
2.07093e-06
0.0400068
5.35937e-06
0.0400067
-3.26078e-06
0.0400126
-7.78583e-06
0.0400045
-8.19918e-06
0.0400004
-8.49022e-06
0.0400002
-8.64669e-06
0.0400001
-8.65791e-06
0.0399999
-8.51423e-06
0.0399997
-8.20755e-06
0.0399995
-7.73251e-06
0.0399993
-7.08578e-06
0.0399991
-6.26967e-06
0.0399989
-5.28669e-06
0.0399987
-4.14449e-06
0.0399985
-2.85489e-06
0.0399983
-1.23361e-06
0.0399979
2.99818e-07
0.039998
1.52236e-06
0.0399983
1.80798e-06
0.0400008
-2.17806e-06
0.0400091
-1.94572e-06
0.0400008
-2.43258e-07
0.039998
1.40746e-06
0.0399979
2.97925e-06
0.039998
3.24725e-06
0.0399983
4.58999e-06
0.0399983
5.78837e-06
0.0399985
6.82781e-06
0.0399987
7.69739e-06
0.039999
8.3901e-06
0.0399992
8.90237e-06
0.0399994
9.23413e-06
0.0399997
9.38821e-06
0.0399999
9.37079e-06
0.0400001
1.11878e-05
0.0399984
1.08488e-05
0.0400006
1.03643e-05
0.0400008
9.7452e-06
0.040001
9.0043e-06
0.0400011
8.15338e-06
0.0400013
5.20282e-06
0.0400034
1.65839e-07
0.0400075
-2.94597e-06
0.0400096
-2.12356e-06
0.0400057
-1.35574e-06
0.0400078
-6.32309e-07
0.0400099
4.05625e-06
0.0399939
7.18383e-07
0.0399919
1.36274e-06
0.03999
0.03999
-2.25935e-06
0.0399915
-4.50839e-06
0.0399915
-4.73363e-06
0.0399914
-6.92285e-06
0.0399914
-1.10625e-05
0.0399933
-7.13741e-06
0.0399932
-9.13656e-06
0.0400111
-9.03911e-06
0.0400109
-8.83146e-06
0.0400087
-8.49103e-06
0.0400065
-8.00177e-06
0.0400063
-1.73304e-05
0.040022
-2.04775e-05
0.0400077
-2.14154e-05
0.0400013
-2.21176e-05
0.0400009
-2.25679e-05
0.0400005
-2.27459e-05
0.0400001
-2.26345e-05
0.0399996
-1.82206e-05
0.0399951
-2.1495e-05
0.0400026
-2.04546e-05
0.039998
-1.91011e-05
0.0399975
-1.7442e-05
0.039997
-1.54926e-05
0.0399965
-1.32756e-05
0.0399961
-1.08207e-05
0.0399955
-8.16405e-06
0.0399953
-5.34684e-06
0.0399955
-4.01682e-06
0.0399995
-6.70888e-06
0.0400118
-5.21712e-06
0.0399993
-2.45221e-06
0.0399953
4.22945e-07
0.039995
3.16198e-06
0.0399953
6.72252e-06
0.0399948
9.06784e-06
0.039996
1.11686e-05
0.0399964
1.30024e-05
0.0399969
1.45513e-05
0.0399974
1.58062e-05
0.0399979
1.67636e-05
0.0399985
1.74256e-05
0.039999
1.78001e-05
0.0399995
1.7895e-05
0.04
1.57273e-05
0.0400005
1.53129e-05
0.040001
1.46711e-05
0.0400014
1.5819e-05
0.0399998
1.47775e-05
0.0400022
1.15669e-05
0.0400045
8.20652e-06
0.0400068
-3.28099e-06
0.040019
1.11324e-06
0.0400052
1.40999e-06
0.0400054
1.6263e-06
0.0400076
3.77727e-06
0.0400077
5.87778e-06
0.0399918
3.94015e-06
0.0399939
1.97732e-06
0.0399919
0.0399919
-3.27173e-06
0.0399947
-6.53044e-06
0.0399947
-9.75286e-06
0.0399946
-1.29203e-05
0.0399945
-1.40126e-05
0.0399944
-1.70095e-05
0.0399962
-1.38877e-05
0.0400079
-1.46268e-05
0.0400116
-1.5196e-05
0.0400093
-1.7574e-05
0.0400089
-1.97229e-05
0.0400084
-2.56099e-05
0.0400278
-3.12251e-05
0.0400133
-3.45251e-05
0.0400046
-3.54846e-05
0.0400019
-3.40664e-05
0.0399991
-3.22498e-05
0.0399983
-2.20142e-05
0.0399894
-1.53396e-05
0.0399884
-2.6192e-05
0.0400134
-3.0598e-05
0.0400024
-2.85495e-05
0.0399955
-2.60598e-05
0.0399945
-2.31517e-05
0.0399936
-1.98641e-05
0.0399928
-1.62405e-05
0.0399919
-1.23359e-05
0.0399914
-8.41414e-06
0.0399916
-5.54216e-06
0.0399966
-6.87997e-06
0.0400132
-4.05241e-06
0.0399965
1.11621e-08
0.0399912
4.32411e-06
0.0399907
8.21962e-06
0.0399914
1.06386e-05
0.0399924
1.39304e-05
0.0399927
1.68542e-05
0.0399935
1.93798e-05
0.0399944
2.34861e-05
0.0399933
2.51634e-05
0.0399963
2.641e-05
0.0399972
2.72339e-05
0.0399982
2.76439e-05
0.0399991
2.76629e-05
0.04
2.73144e-05
0.0400009
2.6621e-05
0.0400017
2.56114e-05
0.0400024
2.23183e-05
0.0400031
2.27668e-05
0.0400017
2.09871e-05
0.0400063
9.00913e-06
0.0400187
6.86013e-06
0.0400212
4.55571e-06
0.0400075
4.12422e-06
0.0400059
3.58853e-06
0.0400081
8.96999e-06
0.0400023
6.285e-06
0.0399945
5.55191e-06
0.0399946
2.78691e-06
0.0399947
0.0399947
-4.20477e-06
0.039999
-8.39313e-06
0.0399989
-1.25327e-05
0.0399988
-1.65976e-05
0.0399986
-2.0564e-05
0.0399983
-2.24009e-05
0.039998
-1.80801e-05
0.0400036
-2.15706e-05
0.0400151
-2.48389e-05
0.0400126
-2.58477e-05
0.0400099
-2.6558e-05
0.0400091
-2.89226e-05
0.0400302
-3.89095e-05
0.0400233
-4.24892e-05
0.0400082
-4.36114e-05
0.040003
-4.42395e-05
0.0399997
-3.83364e-05
0.0399923
-2.38881e-05
0.0399749
-2.88347e-05
0.0399934
-3.71602e-05
0.0400217
-3.8896e-05
0.0400042
-3.60328e-05
0.0399926
-3.25922e-05
0.0399911
-2.86077e-05
0.0399896
-2.41249e-05
0.0399883
-1.9209e-05
0.0399869
-1.39358e-05
0.0399862
-8.39154e-06
0.039986
-4.27324e-06
0.0399925
-4.16201e-06
0.0400131
8.30115e-08
0.0399923
5.70859e-06
0.0399856
1.09043e-05
0.0399855
1.61828e-05
0.0399861
2.16642e-05
0.0399869
2.58847e-05
0.0399885
2.95928e-05
0.0399898
3.27505e-05
0.0399912
3.33398e-05
0.0399927
3.53453e-05
0.0399943
3.67721e-05
0.0399958
3.96334e-05
0.0399953
3.99508e-05
0.0399988
3.97554e-05
0.0400002
3.90749e-05
0.0400016
3.79526e-05
0.0400028
3.64283e-05
0.0400039
3.4536e-05
0.040005
3.03228e-05
0.0400059
1.98242e-05
0.0400168
5.08765e-06
0.0400335
1.41192e-05
0.0400121
1.29677e-05
0.0400087
9.66438e-06
0.0400092
1.02355e-05
0.0400075
1.47063e-05
0.0399979
1.10988e-05
0.0399981
7.43357e-06
0.0399983
3.73092e-06
0.0399984
0.0399985
-5.11439e-06
0.0400041
-8.20755e-06
0.040002
-1.32407e-05
0.0400038
-1.81814e-05
0.0400035
-2.2997e-05
0.0400032
-2.76523e-05
0.0400027
-2.81098e-05
0.0400041
-2.63308e-05
0.0400134
-3.02742e-05
0.0400165
-3.38928e-05
0.0400135
-3.51454e-05
0.0400104
-1.99796e-05
0.040015
-4.02949e-05
0.0400436
-5.0118e-05
0.040018
-5.33688e-05
0.0400063
-5.19985e-05
0.0399984
-4.39717e-05
0.0399843
-3.92436e-05
0.0399702
-4.17538e-05
0.0399959
-4.74963e-05
0.0400275
-4.64902e-05
0.0400032
-4.27303e-05
0.0399889
-3.82425e-05
0.0399866
-3.3071e-05
0.0399845
-2.72781e-05
0.0399825
-2.09504e-05
0.0399806
-1.39855e-05
0.0399792
-7.29813e-06
0.0399793
-1.41042e-06
0.0399866
2.62971e-07
0.0400114
6.03045e-06
0.0399865
1.29092e-05
0.0399787
1.98613e-05
0.0399786
2.59737e-05
0.03998
3.07509e-05
0.0399821
3.59136e-05
0.0399833
4.23957e-05
0.0399833
4.61585e-05
0.0399874
4.91781e-05
0.0399897
5.14474e-05
0.039992
5.29793e-05
0.0399943
5.17875e-05
0.0399965
5.19153e-05
0.0399987
5.33933e-05
0.0399987
5.22797e-05
0.0400027
5.06169e-05
0.0400045
4.84605e-05
0.0400061
4.58623e-05
0.0400076
4.08737e-05
0.0400109
2.75506e-05
0.0400301
2.5939e-05
0.0400351
2.40592e-05
0.040014
1.99679e-05
0.0400128
1.7701e-05
0.0400114
2.32938e-05
0.0400019
1.8768e-05
0.0400024
1.41534e-05
0.0400027
9.47453e-06
0.040003
4.75382e-06
0.0400031
0.0400032
-6.02523e-06
0.0400101
-1.20255e-05
0.040008
-1.79534e-05
0.0400097
-2.3771e-05
0.0400094
-2.9439e-05
0.0400088
-3.49151e-05
0.0400081
-3.81546e-05
0.0400073
-3.51064e-05
0.0400103
-3.77288e-05
0.0400191
-3.99617e-05
0.0400157
-4.37511e-05
0.0400142
-4.30405e-05
0.0400143
-4.37218e-05
0.0400443
-5.97828e-05
0.0400341
-6.11618e-05
0.0400076
-5.57885e-05
0.039993
-3.56356e-05
0.0399642
-5.05842e-05
0.0399851
-5.26212e-05
0.0399979
-5.57256e-05
0.0400306
-5.39132e-05
0.0400014
-4.9178e-05
0.0399841
-4.35504e-05
0.039981
-3.70835e-05
0.039978
-2.98648e-05
0.0399753
-2.1792e-05
0.0399725
-1.35937e-05
0.039971
-4.81469e-06
0.0399705
2.58658e-06
0.0399792
5.96452e-06
0.040008
1.33839e-05
0.0399791
2.20314e-05
0.03997
3.0037e-05
0.0399706
3.78617e-05
0.0399722
4.5586e-05
0.0399744
5.17153e-05
0.0399772
5.49777e-05
0.03998
5.93255e-05
0.0399831
6.2738e-05
0.0399863
6.72124e-05
0.0399875
6.87701e-05
0.0399927
6.94441e-05
0.0399958
6.92827e-05
0.0399988
6.63449e-05
0.0400017
6.66835e-05
0.0400023
6.43783e-05
0.0400068
6.14875e-05
0.040009
5.80798e-05
0.040011
4.2226e-05
0.0400268
2.20058e-05
0.0400503
3.54107e-05
0.0400217
3.25299e-05
0.0400169
2.94204e-05
0.0400159
3.21178e-05
0.0400087
2.66551e-05
0.0400074
2.10668e-05
0.040008
1.53832e-05
0.0400084
9.63048e-06
0.0400087
5.83397e-06
0.0400069
0.0400091
-4.94692e-06
0.040015
-1.38678e-05
0.0400169
-2.07036e-05
0.0400166
-2.54106e-05
0.0400141
-3.19462e-05
0.0400154
-3.826e-05
0.0400145
-4.42977e-05
0.0400133
-4.60093e-05
0.040012
-4.53298e-05
0.0400184
-5.02e-05
0.0400206
-5.45478e-05
0.0400185
-5.43214e-05
0.0400141
-3.34294e-05
0.0400234
-5.76972e-05
0.0400584
-7.32121e-05
0.0400232
-6.98381e-05
0.0399896
-6.15313e-05
0.0399559
-6.21646e-05
0.0399858
-6.17179e-05
0.0399975
-6.41466e-05
0.040033
-6.14623e-05
0.0399987
-5.56778e-05
0.0399783
-4.88094e-05
0.0399741
-4.09363e-05
0.0399701
-3.21478e-05
0.0399665
-2.25738e-05
0.039963
-1.23749e-05
0.0399608
-1.73096e-06
0.0399599
7.36385e-06
0.0399701
1.28203e-05
0.0400026
2.20569e-05
0.0399698
3.22163e-05
0.0399599
4.19983e-05
0.0399608
5.10349e-05
0.0399631
6.01761e-05
0.0399652
6.73101e-05
0.03997
7.33652e-05
0.039974
7.82822e-05
0.0399782
8.20472e-05
0.0399825
8.26671e-05
0.0399869
8.61736e-05
0.0399892
8.66222e-05
0.0399954
8.60654e-05
0.0399994
8.45921e-05
0.0400032
8.22837e-05
0.0400046
7.92165e-05
0.0400098
7.54757e-05
0.0400127
6.71572e-05
0.0400193
5.0332e-05
0.0400436
4.70859e-05
0.0400536
4.54383e-05
0.0400233
4.14859e-05
0.0400208
4.52821e-05
0.0400121
4.08712e-05
0.0400131
3.42909e-05
0.040014
2.75799e-05
0.0400147
2.07704e-05
0.0400152
1.38901e-05
0.0400156
6.96453e-06
0.0400138
0.040016
-7.89231e-06
0.0400229
-1.57524e-05
0.0400248
-2.15165e-05
0.0400223
-3.1141e-05
0.0400237
-3.65676e-05
0.0400208
-4.3746e-05
0.0400216
-5.06155e-05
0.0400202
-5.71129e-05
0.0400185
-5.51609e-05
0.0400165
-5.87018e-05
0.0400242
-6.36532e-05
0.0400235
-6.79264e-05
0.0400184
-6.54399e-05
0.0400209
-7.60298e-05
0.0400689
-7.97072e-05
0.0400268
-7.03726e-05
0.0399803
-7.39173e-05
0.0399594
-7.42422e-05
0.0399861
-7.12926e-05
0.0399945
-7.3007e-05
0.0400347
-6.94114e-05
0.0399951
-6.24919e-05
0.0399714
-5.42835e-05
0.0399659
-4.48637e-05
0.0399607
-3.43464e-05
0.039956
-2.28938e-05
0.0399515
-1.0692e-05
0.0399486
1.83371e-06
0.0399474
1.34392e-05
0.0399585
2.07918e-05
0.0399952
3.20466e-05
0.0399586
4.41042e-05
0.0399478
5.5819e-05
0.0399491
6.63825e-05
0.0399526
7.46349e-05
0.039957
8.28326e-05
0.0399618
8.96913e-05
0.0399671
9.71592e-05
0.0399707
0.00010123
0.0399784
0.000103927
0.0399842
0.000103286
0.0399898
0.000105393
0.0399933
0.000104337
0.0400005
0.000102207
0.0400053
9.71119e-05
0.0400097
9.51547e-05
0.0400118
8.84578e-05
0.0400194
6.91063e-05
0.0400387
4.32535e-05
0.0400694
6.2838e-05
0.040034
5.80291e-05
0.0400281
6.09205e-05
0.040018
5.35396e-05
0.0400195
4.59456e-05
0.0400207
3.81831e-05
0.0400218
3.02905e-05
0.0400226
2.43026e-05
0.0400212
1.6244e-05
0.0400236
6.14015e-06
0.0400239
0.0400222
-8.86349e-06
0.0400318
-1.56896e-05
0.0400316
-2.6417e-05
0.0400331
-3.29831e-05
0.0400303
-4.33394e-05
0.0400311
-5.14184e-05
0.0400297
-5.7154e-05
0.040026
-6.44796e-05
0.0400258
-7.13147e-05
0.0400233
-6.75646e-05
0.0400204
-7.11608e-05
0.0400271
-7.79963e-05
0.0400252
-7.99653e-05
0.0400229
-7.29354e-05
0.0400619
-7.88327e-05
0.0400327
-5.96127e-05
0.0399611
-8.10219e-05
0.0399808
-8.3039e-05
0.0399881
-8.35865e-05
0.0399951
-8.05757e-05
0.0400317
-7.60098e-05
0.0399905
-6.98745e-05
0.0399653
-6.02143e-05
0.0399562
-4.90986e-05
0.0399496
-3.66758e-05
0.0399436
-2.3122e-05
0.039938
-8.47738e-06
0.039934
6.38735e-06
0.0399325
2.01723e-05
0.0399447
2.98842e-05
0.0399855
4.36065e-05
0.0399449
5.77878e-05
0.0399336
7.10272e-05
0.0399358
8.34779e-05
0.0399401
9.51384e-05
0.0399453
0.00010446
0.0399525
0.000112145
0.0399594
0.000116148
0.0399667
0.000122466
0.0399721
0.000125145
0.0399815
0.000126262
0.0399887
0.000123905
0.0399956
0.00012419
0.0400002
0.000121258
0.0400082
0.000117236
0.0400138
0.00011026
0.0400188
0.000102445
0.0400272
8.59345e-05
0.0400552
7.88562e-05
0.0400765
7.7218e-05
0.0400356
7.91861e-05
0.0400262
7.08166e-05
0.0400263
6.21792e-05
0.0400281
5.33328e-05
0.0400296
4.4324e-05
0.0400308
3.71941e-05
0.0400297
2.59705e-05
0.0400324
1.86876e-05
0.0400309
9.36286e-06
0.0400333
0.0400315
-9.86617e-06
0.0400417
-1.96947e-05
0.0400414
-2.74106e-05
0.0400408
-3.89628e-05
0.0400418
-4.62769e-05
0.0400385
-5.53019e-05
0.0400387
-6.39548e-05
0.0400346
-7.21603e-05
0.040034
-7.98312e-05
0.040031
-8.68728e-05
0.0400274
-8.31758e-05
0.0400234
-8.66425e-05
0.0400287
-8.91885e-05
0.0400254
-5.66643e-05
0.0400294
-8.27483e-05
0.0400588
-9.16396e-05
0.03997
-9.69977e-05
0.0399862
-9.67737e-05
0.0399879
-9.0845e-05
0.0399891
-8.1113e-05
0.040022
-8.55221e-05
0.0399949
-7.80991e-05
0.0399579
-6.6856e-05
0.039945
-5.38881e-05
0.0399366
-3.93377e-05
0.039929
-2.34358e-05
0.0399221
-6.45633e-06
0.039917
1.10639e-05
0.039915
2.7755e-05
0.039928
4.01556e-05
0.0399731
5.62552e-05
0.0399288
7.28283e-05
0.0399171
8.86286e-05
0.03992
0.000102548
0.0399262
0.000113947
0.0399339
0.00012447
0.039942
0.000134997
0.0399489
0.0001415
0.0399602
0.000143998
0.0399696
0.000148554
0.039977
0.000149277
0.039988
0.000148302
0.0399966
0.000145789
0.0400027
0.000141886
0.0400121
0.000136766
0.0400189
0.000126596
0.0400289
9.95381e-05
0.0400543
7.97572e-05
0.040075
9.72862e-05
0.040059
9.82962e-05
0.0400346
9.09004e-05
0.0400336
8.11778e-05
0.040036
7.11994e-05
0.0400381
6.30284e-05
0.0400377
5.27049e-05
0.0400411
4.02765e-05
0.0400421
3.17734e-05
0.0400409
1.92136e-05
0.0400435
1.06262e-05
0.0400419
0.0400421
-1.09029e-05
0.0400526
-2.17674e-05
0.0400523
-3.25158e-05
0.0400515
-4.10839e-05
0.0400504
-5.3415e-05
0.0400508
-6.14267e-05
0.0400468
-7.30519e-05
0.0400462
-8.01898e-05
0.0400412
-8.87673e-05
0.0400396
-9.66638e-05
0.0400353
-0.000103769
0.0400305
-9.99495e-05
0.0400249
-0.000103091
0.0400285
-9.90793e-05
0.0400254
-9.36128e-05
0.0400534
-0.000110675
0.039987
-0.00011208
0.0399876
-0.000107684
0.0399835
-9.73491e-05
0.0399788
-6.29735e-05
0.0399876
-8.2266e-05
0.0400142
-8.54566e-05
0.039961
-7.45118e-05
0.039934
-5.94971e-05
0.0399216
-4.25827e-05
0.0399121
-2.38268e-05
0.0399033
-4.16413e-06
0.0398973
1.65932e-05
0.0398942
3.6194e-05
0.0399084
5.16787e-05
0.0399576
7.07326e-05
0.0399097
9.02495e-05
0.0398976
0.000108084
0.0399022
0.000124496
0.0399098
0.000139389
0.039919
0.000151184
0.0399302
0.000158575
0.0399415
0.000167539
0.0399512
0.000172116
0.039965
0.000172416
0.0399767
0.000174584
0.0399858
0.000172803
0.0399984
0.000167271
0.0400082
0.000164195
0.0400152
0.000155786
0.0400273
0.000136233
0.0400485
0.000103794
0.0400867
0.000112478
0.0400663
0.000122511
0.040049
0.000114043
0.0400431
0.000103175
0.0400444
9.19935e-05
0.0400472
8.05906e-05
0.0400495
6.90144e-05
0.0400493
5.73157e-05
0.0400528
4.75364e-05
0.0400519
3.5698e-05
0.0400528
2.38233e-05
0.0400554
1.19281e-05
0.0400537
0.0400541
-1.19758e-05
0.0400645
-2.39134e-05
0.0400642
-3.57318e-05
0.0400634
-4.73674e-05
0.040062
-5.67488e-05
0.0400602
-6.78085e-05
0.0400578
-7.8461e-05
0.0400569
-8.86136e-05
0.0400513
-9.81662e-05
0.0400491
-0.000107003
0.0400442
-0.000112989
0.0400365
-0.000120007
0.0400319
-0.000117883
0.0400264
-0.000118521
0.040026
-8.77261e-05
0.0400226
-0.000114999
0.0400143
-0.0001245
0.0399971
-0.000124
0.039983
-0.000117307
0.0399721
-0.000100225
0.0399705
-0.00010451
0.0400185
-9.82926e-05
0.0399548
-8.35213e-05
0.0399193
-6.62589e-05
0.0399043
-4.67036e-05
0.0398925
-2.51391e-05
0.0398817
-1.9778e-06
0.0398742
2.20856e-05
0.0398702
4.5487e-05
0.039885
6.45567e-05
0.0399385
8.70377e-05
0.0398872
0.000109504
0.0398751
0.000130531
0.0398812
0.00014908
0.0398912
0.000163851
0.0399043
0.000179001
0.039915
0.00018925
0.0399313
0.000194597
0.0399459
0.000201121
0.0399585
0.000202985
0.0399748
0.000200391
0.0399884
0.000199575
0.0399992
0.000194804
0.040013
0.000188317
0.0400217
0.000174377
0.0400412
0.000153245
0.0400696
0.000143108
0.0400969
0.00015016
0.0400592
0.000140557
0.0400586
0.000128463
0.0400552
0.000115996
0.0400569
0.000103258
0.04006
9.23347e-05
0.0400604
7.7275e-05
0.0400644
6.61385e-05
0.0400639
5.09453e-05
0.0400671
3.7728e-05
0.040066
2.65005e-05
0.0400666
1.32638e-05
0.040067
0.0400673
-1.30855e-05
0.0400776
-2.41287e-05
0.0400753
-3.70598e-05
0.0400763
-4.98059e-05
0.0400748
-6.22989e-05
0.0400727
-7.44626e-05
0.04007
-8.62116e-05
0.0400686
-9.74486e-05
0.0400626
-0.000108067
0.0400597
-0.000115939
0.0400521
-0.000126936
0.0400474
-0.000134895
0.0400398
-0.000139645
0.0400312
-0.000135008
0.0400214
-0.000134818
0.0400224
-0.000140647
0.0400201
-0.000142485
0.0399989
-0.000140043
0.0399805
-0.000135081
0.0399671
-0.000127387
0.0399628
-0.000122694
0.0400138
-0.000111036
0.0399432
-9.43205e-05
0.0399026
-7.46055e-05
0.0398846
-5.20827e-05
0.03987
-2.71e-05
0.0398568
6.9943e-08
0.039847
2.82129e-05
0.039842
5.56275e-05
0.0398576
7.89001e-05
0.0399153
0.00010538
0.0398607
0.000131704
0.0398488
0.000155745
0.0398571
0.000176961
0.03987
0.000195781
0.0398854
0.000208384
0.0399024
0.000221471
0.0399182
0.000229096
0.0399383
0.000231399
0.0399562
0.000234598
0.0399716
0.000232989
0.03999
0.000228856
0.0400033
0.000222539
0.0400193
0.000208363
0.0400359
0.00017466
0.0400749
0.000149742
0.0400946
0.000173687
0.0400729
0.000168829
0.0400641
0.000155397
0.040072
0.000143515
0.040067
0.000129326
0.0400711
0.000114919
0.0400744
0.000100382
0.040075
8.57719e-05
0.040079
7.11306e-05
0.0400786
5.84886e-05
0.0400797
4.38528e-05
0.0400806
2.92309e-05
0.0400812
1.46259e-05
0.0400816
0.040082
-1.42331e-05
0.0400919
-2.84325e-05
0.0400895
-4.25162e-05
0.0400904
-5.642e-05
0.0400887
-7.00748e-05
0.0400863
-8.34039e-05
0.0400833
-9.43161e-05
0.0400795
-0.000106721
0.040075
-0.000116491
0.0400695
-0.000129526
0.0400651
-0.000137644
0.0400556
-0.000146685
0.0400489
-0.000154478
0.040039
-0.000160786
0.0400277
-0.000157371
0.040019
-0.000159937
0.0400227
-0.000160281
0.0399993
-0.000158105
0.0399784
-0.000153084
0.0399621
-0.000144921
0.0399547
-0.000137324
0.0400062
-0.000126207
0.0399321
-0.000107453
0.0398838
-8.50629e-05
0.0398622
-5.92269e-05
0.0398442
-3.03248e-05
0.0398279
1.06442e-06
0.0398156
3.41927e-05
0.0398089
6.65871e-05
0.0398252
9.4822e-05
0.039887
0.000126026
0.0398295
0.00015646
0.0398183
0.000184202
0.0398294
0.000208453
0.0398458
0.000229747
0.0398642
0.000245864
0.0398863
0.00025575
0.0399083
0.000265495
0.0399285
0.000269333
0.0399524
0.000269589
0.0399713
0.000266595
0.039993
0.000260809
0.0400091
0.000250603
0.0400295
0.000222419
0.040064
0.000182717
0.0401146
0.00019958
0.0400777
0.000201354
0.0400712
0.000186436
0.040079
0.00017499
0.0400834
0.000157154
0.0400849
0.000143094
0.0400852
0.000126917
0.0400906
0.000110683
0.0400912
9.64551e-05
0.0400932
7.82539e-05
0.0400968
6.21118e-05
0.0400959
4.60268e-05
0.0400967
3.19988e-05
0.0400952
1.60039e-05
0.0400976
0.040098
-1.34111e-05
0.0401053
-3.08061e-05
0.0401069
-4.60855e-05
0.0401057
-5.91884e-05
0.0401018
-7.40606e-05
0.0401012
-8.86161e-05
0.0400979
-0.000102783
0.0400937
-0.000116446
0.0400886
-0.000129493
0.0400826
-0.000139788
0.0400754
-0.000153183
0.040069
-0.000163486
0.0400592
-0.000170488
0.040046
-0.000177946
0.0400351
-0.000181612
0.0400226
-0.000179121
0.0400202
-0.000182221
0.0400024
-0.000178546
0.0399747
-0.000173707
0.0399573
-0.000163325
0.0399443
-0.000139032
0.0399819
-0.000140464
0.0399335
-0.000123597
0.0398669
-9.83196e-05
0.039837
-6.87735e-05
0.0398146
-3.53785e-05
0.0397945
1.1831e-06
0.039779
3.9781e-05
0.0397703
7.83041e-05
0.0397867
0.000112489
0.0398529
0.000149329
0.0397927
0.000184842
0.0397828
0.000217126
0.0397971
0.00024482
0.0398181
0.000266428
0.0398425
0.000286105
0.0398666
0.000298673
0.0398957
0.000306316
0.0399209
0.000309385
0.0399493
0.000308284
0.0399724
0.000303523
0.0399978
0.000293628
0.040019
0.000279126
0.040044
0.000250543
0.0400926
0.000246331
0.0401189
0.000238665
0.0400854
0.000224122
0.0400857
0.000204964
0.0400982
0.000191232
0.0400972
0.000175285
0.0401008
0.000157226
0.0401032
0.000139159
0.0401086
0.000121148
0.0401092
0.00010323
0.0401111
8.7448e-05
0.0401125
6.97805e-05
0.0401136
5.22285e-05
0.0401142
3.27667e-05
0.0401147
1.73843e-05
0.040113
0.0401154
-1.6636e-05
0.0401219
-3.32513e-05
0.0401235
-4.77606e-05
0.0401202
-6.61282e-05
0.0401201
-8.02665e-05
0.0401153
-9.61238e-05
0.0401137
-0.000111611
0.0401092
-0.000126627
0.0401037
-0.000141058
0.040097
-0.000154757
0.0400891
-0.000165581
0.0400798
-0.000177324
0.0400709
-0.000187754
0.0400564
-0.000196638
0.040044
-0.000203631
0.0400296
-0.000208403
0.040025
-0.000202584
0.0399965
-0.000203747
0.0399759
-0.000195447
0.039949
-0.000179235
0.0399281
-0.000124665
0.0399274
-0.000144652
0.0399535
-0.000141612
0.0398639
-0.00011524
0.0398106
-8.15564e-05
0.039781
-4.29885e-05
0.0397559
-3.38264e-07
0.0397364
4.52305e-05
0.0397247
9.07095e-05
0.0397412
0.00013207
0.0398115
0.000175708
0.0397491
0.000217478
0.039741
0.000254663
0.0397599
0.000286299
0.0397864
0.000312638
0.0398162
0.000329897
0.0398494
0.000344957
0.0398807
0.000350184
0.0399157
0.000354013
0.0399455
0.000349047
0.0399774
0.000343994
0.0400028
0.000327488
0.0400355
0.00028227
0.0400892
0.00025694
0.040118
0.000275613
0.0401002
0.000269117
0.0400919
0.00024983
0.040105
0.000230077
0.0401179
0.000209935
0.0401173
0.000191729
0.040119
0.000169562
0.0401254
0.000151526
0.0401267
0.00013167
0.0401291
0.000112031
0.0401308
9.26142e-05
0.040132
7.34084e-05
0.0401328
5.63943e-05
0.0401313
3.75206e-05
0.0401336
1.87504e-05
0.0401317
0.0401341
-1.78872e-05
0.0401398
-3.57621e-05
0.0401414
-5.35519e-05
0.040138
-6.92029e-05
0.0401358
-8.86818e-05
0.0401348
-0.000103895
0.0401289
-0.000120787
0.0401261
-0.000137257
0.0401201
-0.000153191
0.0401129
-0.000168451
0.0401043
-0.000182875
0.0400942
-0.000194259
0.0400823
-0.000208379
0.0400705
-0.000216939
0.0400526
-0.000225613
0.0400383
-0.000231983
0.0400313
-0.00023565
0.0400002
-0.000228105
0.0399683
-0.000224776
0.0399457
-0.000215052
0.0399184
-0.000188315
0.0399006
-0.000183493
0.0399487
-0.00016852
0.0398489
-0.000136959
0.039779
-9.86869e-05
0.0397427
-5.41306e-05
0.0397113
-4.26016e-06
0.0396865
4.92858e-05
0.0396712
0.000103686
0.0396868
0.000153826
0.0397614
0.00020573
0.0396972
0.000254837
0.0396919
0.000297821
0.0397169
0.000334154
0.0397501
0.000363438
0.0397869
0.000384177
0.0398287
0.000397455
0.0398674
0.000403731
0.0399094
0.000403752
0.0399455
0.000398321
0.0399828
0.000384284
0.0400169
0.000352536
0.0400673
0.000304116
0.0401377
0.000317109
0.040105
0.000316369
0.0401009
0.000296686
0.0401115
0.000272404
0.0401293
0.00025174
0.0401386
0.000231
0.0401381
0.00020636
0.0401437
0.00018596
0.0401458
0.000163861
0.0401488
0.00014211
0.0401508
0.000120717
0.0401522
0.000101677
0.040151
8.09401e-05
0.0401535
5.84607e-05
0.0401537
4.02038e-05
0.0401518
1.80738e-05
0.0401539
0.0401522
-1.9165e-05
0.040159
-3.63187e-05
0.0401585
-5.74254e-05
0.0401591
-7.6421e-05
0.0401548
-9.32621e-05
0.0401517
-0.000113917
0.0401496
-0.00013028
0.0401425
-0.000148308
0.0401382
-0.000163861
0.0401285
-0.000180828
0.0401213
-0.00019703
0.0401104
-0.000212298
0.0400976
-0.00022636
0.0400846
-0.00023893
0.0400652
-0.000249647
0.040049
-0.000256069
0.0400378
-0.000261718
0.0400059
-0.000266018
0.0399726
-0.000258243
0.0399379
-0.000249667
0.0399098
-0.000233362
0.0398843
-0.000200365
0.0399157
-0.000193693
0.0398423
-0.000164909
0.0397502
-0.000121597
0.0396994
-7.01145e-05
0.0396599
-1.16042e-05
0.039628
5.2112e-05
0.0396075
0.000117073
0.0396219
0.000178111
0.0397003
0.000240228
0.039635
0.00029803
0.0396341
0.000348539
0.0396664
0.000389978
0.0397087
0.000420152
0.0397567
0.000444127
0.0398047
0.000455105
0.0398564
0.000461846
0.0399026
0.00045527
0.039952
0.000440511
0.0399976
0.000420628
0.0400368
0.000392886
0.040095
0.000382098
0.0401484
0.000370963
0.0401161
0.000350478
0.0401214
0.000321203
0.0401408
0.000293624
0.0401569
0.00027375
0.0401585
0.000248135
0.0401637
0.000224933
0.0401669
0.000200192
0.0401705
0.000175977
0.040173
0.000152296
0.0401745
0.000131163
0.0401733
0.000106491
0.0401757
8.62631e-05
0.0401737
6.43814e-05
0.0401756
4.27754e-05
0.0401734
2.13552e-05
0.0401753
0.0401735
-2.04629e-05
0.0401794
-4.09335e-05
0.040179
-5.93561e-05
0.0401775
-7.97235e-05
0.0401751
-0.000102004
0.0401739
-0.000120128
0.0401677
-0.000140065
0.0401624
-0.000159736
0.0401578
-0.000179044
0.0401478
-0.00019787
0.0401401
-0.00021606
0.0401286
-0.000233423
0.040115
-0.00024771
0.0400989
-0.000262619
0.0400801
-0.000273808
0.0400602
-0.000282835
0.0400468
-0.000293005
0.040016
-0.000297792
0.0399774
-0.000298396
0.0399385
-0.000285801
0.0398972
-0.000265056
0.0398636
-0.000194967
0.0398456
-0.000212888
0.0398602
-0.00019895
0.0397363
-0.000152181
0.0396526
-9.26708e-05
0.0396003
-2.35603e-05
0.0395589
5.20623e-05
0.0395318
0.000130673
0.0395433
0.000205395
0.0396256
0.000280254
0.0395602
0.000349204
0.0395652
0.000408006
0.0396076
0.000455016
0.0396616
0.00049045
0.0397213
0.000513224
0.0397819
0.00052515
0.0398445
0.000523388
0.0399044
0.000503258
0.0399722
0.000466122
0.0400347
0.000427559
0.0400753
0.000406797
0.0401158
0.000428608
0.0401266
0.000410606
0.0401341
0.000381656
0.0401504
0.000350301
0.0401722
0.000322856
0.0401843
0.000295662
0.0401856
0.000269062
0.0401903
0.000241155
0.0401948
0.00021401
0.0401977
0.000187651
0.0401993
0.000164067
0.0401981
0.000137179
0.0402002
0.000114955
0.0401979
8.92672e-05
0.0401994
6.80556e-05
0.0401968
4.31732e-05
0.0401983
2.25461e-05
0.0401959
0.0401961
-2.17715e-05
0.0402012
-4.35635e-05
0.0402008
-6.53428e-05
0.0401993
-8.71098e-05
0.0401969
-0.000106828
0.0401937
-0.000128495
0.0401894
-0.00015006
0.040184
-0.000171461
0.0401792
-0.000192643
0.040169
-0.000213479
0.040161
-0.000231831
0.040147
-0.000251525
0.0401346
-0.000270362
0.0401177
-0.000288023
0.0400977
-0.00030218
0.0400744
-0.000308417
0.040053
-0.000323709
0.0400313
-0.000335784
0.0399895
-0.000339637
0.0399423
-0.000338137
0.0398957
-0.000319928
0.0398454
-0.00029132
0.039817
-0.000277697
0.0398466
-0.000245863
0.0397045
-0.00019321
0.0396
-0.000124525
0.0395317
-4.27813e-05
0.0394772
4.86011e-05
0.0394405
0.000144115
0.0394477
0.000236732
0.039533
0.000327609
0.0394693
0.000409823
0.039483
0.000478995
0.0395384
0.000532522
0.0396081
0.000570437
0.0396834
0.000590855
0.0397615
0.000598915
0.0398364
0.000581574
0.0399217
0.000556341
0.0399974
0.000539297
0.0400518
0.00050057
0.0401141
0.000493219
0.0401231
0.000481016
0.0401388
0.000451544
0.0401636
0.000413544
0.0401884
0.000375656
0.04021
0.000347961
0.040212
0.000317144
0.0402165
0.000285372
0.040222
0.000254683
0.0402255
0.000227116
0.0402252
0.000198612
0.0402278
0.000171149
0.0402255
0.000144604
0.0402267
0.00011888
0.0402236
9.58638e-05
0.0402224
6.93913e-05
0.0402233
4.73693e-05
0.0402203
2.36248e-05
0.0402197
0.0402197
-2.30795e-05
0.0402243
-4.61934e-05
0.0402239
-6.93323e-05
0.0402224
-9.04934e-05
0.0402181
-0.000113703
0.0402169
-0.000136942
0.0402126
-0.000162202
0.0402092
-0.000183415
0.0402004
-0.00020656
0.0401921
-0.000227535
0.040182
-0.000252256
0.0401717
-0.000272533
0.0401549
-0.000294173
0.0401393
-0.000314944
0.0401185
-0.000334461
0.0400939
-0.000348314
0.0400669
-0.000365691
0.0400487
-0.000378022
0.0400018
-0.000386369
0.0399507
-0.00038935
0.0398987
-0.00038531
0.0398413
-0.000362166
0.0397938
-0.000330826
0.0398152
-0.000305462
0.0396791
-0.000246987
0.0395415
-0.000167379
0.039452
-7.03765e-05
0.0393801
4.04009e-05
0.0393297
0.000159425
0.0393287
0.000275559
0.0394168
0.000384958
0.0393599
0.000484266
0.0393837
0.0005653
0.0394574
0.000625312
0.0395481
0.000663483
0.0396452
0.000683967
0.039741
0.000672421
0.039848
0.000647579
0.0399466
0.000633362
0.0400116
0.00061828
0.0400669
0.000593289
0.040139
0.000566197
0.0401502
0.00052908
0.0401759
0.000489201
0.0402035
0.000447433
0.0402301
0.000410326
0.0402472
0.000374288
0.040248
0.000339712
0.040251
0.000304661
0.0402571
0.000271158
0.040259
0.000239168
0.0402572
0.000208597
0.0402584
0.00017933
0.0402548
0.000153238
0.0402528
0.000124131
0.0402527
9.78832e-05
0.0402487
7.43244e-05
0.0402469
4.92734e-05
0.0402454
2.45609e-05
0.0402444
0.0402443
-2.4373e-05
0.0402486
-4.67819e-05
0.0402463
-7.12694e-05
0.0402469
-9.78633e-05
0.0402447
-0.000122562
0.0402416
-0.000147394
0.0402375
-0.000170353
0.0402322
-0.000195452
0.0402255
-0.000220643
0.0402173
-0.000245908
0.0402072
-0.000269125
0.0401949
-0.000296216
0.040182
-0.000318977
0.0401621
-0.000343191
0.0401427