/*--------------------------------*- C++ -*----------------------------------*\
  =========                 |
  \\      /  F ield         | OpenFOAM: The Open Source CFD Toolbox
   \\    /   O peration     | Website:  https://openfoam.org
    \\  /    A nd           | Version:  12
     \\/     M anipulation  |
\*---------------------------------------------------------------------------*/
FoamFile
{
    format      ascii;
    class       volVectorField;
    location    "160";
    object      U;
}
// * * * * * * * * * * * * * * * * * * * * * * * * * * * * * * * * * * * * * //

dimensions      [0 1 -1 0 0 0 0];

internalField   nonuniform List<vector> 
16227
(
(2 -8.77656e-06 -5.62789e-23)
(2 -2.62258e-05 5.66518e-23)
(2 -4.35442e-05 -5.66522e-23)
(2 -6.06441e-05 -5.72991e-23)
(2 -7.74263e-05 5.72996e-23)
(2 -9.37792e-05 5.83485e-23)
(2 -0.000109605 6.82144e-25)
(2 -0.000124781 -1.18808e-22)
(2 -0.000139172 1.81103e-22)
(2 -0.000152631 -1.21314e-22)
(2 -0.000165007 0)
(2 -0.000176159 1.26298e-22)
(2 -0.000185939 0)
(2 -0.000194202 0)
(2 -0.000200755 0)
(2 -0.000205438 0)
(2 -0.000208098 0)
(2 -0.000208595 0)
(2 -0.00020681 0)
(2 -0.000202652 0)
(2 -0.000196067 -1.49824e-22)
(2 -0.00018704 -2.29901e-24)
(2 -0.000175602 1.52123e-22)
(2 -0.000161839 0)
(2 -0.000145889 -1.58044e-22)
(2 -0.000127943 1.58045e-22)
(2 -0.000108249 0)
(2 -8.70972e-05 8.08069e-23)
(2 -6.48289e-05 0)
(2 -4.18187e-05 0)
(2 -1.844e-05 0)
(2 4.91084e-06 0)
(2 2.78417e-05 0)
(2 4.99764e-05 1.62381e-22)
(2 7.09663e-05 -8.8207e-25)
(2 9.04987e-05 -1.61504e-22)
(2 0.000108306 0)
(2 0.000124169 1.57532e-22)
(2 0.000137919 -1.68777e-24)
(2 0.000149438 -1.55846e-22)
(2 0.000158657 0)
(2 0.000165554 0)
(2 0.000170147 0)
(2 0.00017249 0)
(2 0.000172668 0)
(2 0.000170789 0)
(2 0.00016698 0)
(2 0.000161388 0)
(2 0.000154155 0)
(2 0.000145426 0)
(2 0.000135361 0)
(2 0.000124107 0)
(2 0.000111826 0)
(2 9.86541e-05 0)
(2 8.47193e-05 -6.37637e-23)
(2 7.01455e-05 6.37666e-23)
(2 5.50676e-05 0)
(2 3.96122e-05 0)
(2 2.38913e-05 0)
(2 7.97438e-06 6.24593e-23)
(2.00004 -3.77135e-05 2.14948e-25)
(2.00004 -0.00011293 0)
(2.00004 -0.00018763 0)
(2.00004 -0.000261488 0)
(2.00004 -0.000334067 -9.69689e-23)
(2.00004 -0.000404983 0)
(2.00004 -0.000473818 0)
(2.00004 -0.000540127 -3.02118e-22)
(2.00004 -0.000603371 2.01963e-22)
(2.00003 -0.000663023 -4.16282e-22)
(2.00003 -0.000718497 1.68214e-21)
(2.00003 -0.000769257 -1.06418e-21)
(2.00002 -0.000814685 5.39225e-22)
(2.00002 -0.000854168 0)
(2.00002 -0.000887039 0)
(2.00001 -0.000912686 0)
(2.00001 -0.000930515 0)
(2 -0.000940001 0)
(1.99999 -0.000940697 0)
(1.99999 -0.000932263 0)
(1.99998 -0.000914474 0)
(1.99998 -0.000887257 0)
(1.99997 -0.000850744 0)
(1.99997 -0.000805239 0)
(1.99996 -0.000751261 0)
(1.99996 -0.000689525 -2.70129e-22)
(1.99995 -0.000620932 2.70138e-22)
(1.99995 -0.000546559 -1.36618e-22)
(1.99995 -0.000467634 0)
(1.99995 -0.000385495 0)
(1.99995 -0.000301495 0)
(1.99995 -0.000217136 0)
(1.99995 -0.000133839 0)
(1.99995 -5.29463e-05 0)
(1.99995 2.42934e-05 0)
(1.99996 9.67964e-05 -2.71461e-22)
(1.99996 0.000163603 2.28467e-24)
(1.99996 0.000223953 2.60914e-24)
(1.99997 0.000277267 2.8886e-24)
(1.99997 0.000323141 2.63713e-22)
(1.99998 0.000361356 2.57294e-22)
(1.99999 0.000391851 -2.57299e-22)
(1.99999 0.000414708 0)
(2 0.000430138 0)
(2 0.000438439 0)
(2 0.000439979 0)
(2.00001 0.000435217 0)
(2.00001 0.000424645 0)
(2.00002 0.00040876 0)
(2.00002 0.000388087 0)
(2.00002 0.000363138 2.24028e-22)
(2.00003 0.000334404 -4.46463e-22)
(2.00003 0.000302405 -4.38288e-22)
(2.00003 0.000267567 4.38306e-22)
(2.00003 0.000230281 -4.30829e-22)
(2.00003 0.000191011 6.44808e-22)
(2.00003 0.000150179 -2.14068e-22)
(2.00003 0.000108149 1.06091e-22)
(2.00003 6.52906e-05 -1.06092e-22)
(2.00003 2.18305e-05 -1.92764e-25)
(2.00015 -6.66876e-05 9.48062e-23)
(2.00014 -0.00019997 0)
(2.00014 -0.000332235 0)
(2.00014 -0.000462957 0)
(2.00014 -0.000591332 9.69597e-23)
(2.00013 -0.000716632 -1.96533e-22)
(2.00013 -0.000838149 -2.33994e-24)
(2.00012 -0.000955022 2.98939e-22)
(2.00012 -0.00106634 1.01239e-22)
(2.00011 -0.00117115 4.15419e-22)
(2.0001 -0.00126844 -4.12164e-22)
(2.00009 -0.00135712 -8.48632e-22)
(2.00008 -0.00143616 1.08115e-22)
(2.00007 -0.00150451 0)
(2.00005 -0.00156095 1.12528e-22)
(2.00004 -0.00160441 0)
(2.00002 -0.00163387 0)
(2.00001 -0.00164841 0)
(1.99999 -0.00164728 -4.90339e-22)
(1.99997 -0.00162999 4.90299e-22)
(1.99995 -0.00159608 -2.53698e-22)
(1.99994 -0.0015455 2.53707e-22)
(1.99992 -0.00147852 0)
(1.9999 -0.00139576 -2.64949e-22)
(1.99988 -0.00129822 -3.11046e-24)
(1.99987 -0.00118723 2.68094e-22)
(1.99986 -0.00106446 0)
(1.99985 -0.0009319 0)
(1.99984 -0.000791748 0)
(1.99984 -0.00064639 0)
(1.99983 -0.000498304 1.3844e-22)
(1.99983 -0.000350227 -2.77544e-22)
(1.99984 -0.000204604 0)
(1.99984 -6.37935e-05 0)
(1.99985 7.00362e-05 2.74112e-22)
(1.99986 0.000195016 -2.74124e-22)
(1.99988 0.00030953 0)
(1.99989 0.000412328 0)
(1.9999 0.00050248 0)
(1.99992 0.000579378 0)
(1.99993 0.000642755 0)
(1.99995 0.000692604 0)
(1.99997 0.000729171 -1.26133e-22)
(1.99998 0.000752908 0)
(1.99999 0.000764415 0)
(2.00001 0.000764429 0)
(2.00002 0.000753804 -1.17225e-22)
(2.00003 0.000733429 2.36024e-22)
(2.00004 0.000704187 0)
(2.00005 0.000667035 1.13804e-22)
(2.00006 0.000622878 0)
(2.00006 0.000572578 2.22427e-22)
(2.00007 0.000517005 4.37461e-22)
(2.00007 0.000456767 1.04573e-22)
(2.00008 0.000392619 -4.33429e-22)
(2.00008 0.000325348 2.1352e-22)
(2.00009 0.000255603 -2.13596e-22)
(2.00009 0.000183963 0)
(2.00009 0.000111018 0)
(2.00009 3.72033e-05 -1.05271e-22)
(2.0003 -9.2048e-05 0)
(2.0003 -0.000276217 0)
(2.0003 -0.00045882 -9.46881e-23)
(2.00029 -0.000639158 0)
(2.00029 -0.000816027 -9.67968e-23)
(2.00028 -0.000988412 9.67895e-23)
(2.00027 -0.00115522 0)
(2.00026 -0.00131524 -3.01953e-22)
(2.00024 -0.00146716 3.00031e-22)
(2.00023 -0.00160958 0)
(2.00021 -0.00174106 -4.21138e-22)
(2.00019 -0.00185993 -1.27427e-21)
(2.00017 -0.00196489 -2.16586e-22)
(2.00014 -0.00205432 0)
(2.00011 -0.00212646 -1.12504e-22)
(2.00008 -0.00217979 0)
(2.00005 -0.00221288 0)
(2.00001 -0.00222442 9.63501e-22)
(1.99997 -0.0022135 -9.6377e-22)
(1.99994 -0.00217931 0)
(1.9999 -0.00212114 -2.54225e-22)
(1.99986 -0.00203917 -4.14242e-24)
(1.99982 -0.00193384 -3.88915e-24)
(1.99979 -0.00180612 2.62316e-22)
(1.99975 -0.0016576 0)
(1.99973 -0.00149033 0)
(1.9997 -0.00130685 0)
(1.99968 -0.00111016 1.38158e-22)
(1.99967 -0.00090356 8.72334e-25)
(1.99966 -0.000690597 1.39236e-22)
(1.99965 -0.00047504 -1.84997e-25)
(1.99966 -0.00026088 0)
(1.99967 -5.1718e-05 0)
(1.99968 0.000149064 0)
(1.9997 0.000338335 -2.75213e-22)
(1.99972 0.000513434 2.08281e-24)
(1.99975 0.000672121 2.46759e-24)
(1.99978 0.000812736 2.80581e-24)
(1.99981 0.000934054 5.32445e-22)
(1.99984 0.00103534 -2.64646e-22)
(1.99987 0.0011164 0)
(1.9999 0.00117739 -1.28092e-22)
(1.99993 0.00121884 1.26096e-22)
(1.99996 0.00124153 0)
(1.99999 0.00124651 0)
(2.00002 0.00123497 0)
(2.00004 0.00120824 -1.18759e-22)
(2.00007 0.00116771 0)
(2.00009 0.00111471 0)
(2.0001 0.00105067 -2.27216e-22)
(2.00012 0.000976926 -4.4581e-22)
(2.00013 0.000894758 8.86365e-22)
(2.00014 0.000805347 -4.40732e-22)
(2.00015 0.000709532 -5.40539e-22)
(2.00016 0.00060853 4.31871e-22)
(2.00017 0.000503365 0)
(2.00017 0.000394899 0)
(2.00018 0.000283913 1.05248e-22)
(2.00018 0.000171195 0)
(2.00018 5.7412e-05 0)
(2.00051 -0.000115468 0)
(2.00051 -0.00034658 0)
(2.0005 -0.000575583 7.89182e-25)
(2.00049 -0.000801579 0)
(2.00048 -0.00102301 0)
(2.00047 -0.00123852 -1.93333e-22)
(2.00045 -0.00144664 -2.96275e-22)
(2.00043 -0.00164583 2.94059e-22)
(2.00041 -0.00183434 0)
(2.00038 -0.00201034 0)
(2.00035 -0.00217192 -4.19283e-22)
(2.00031 -0.00231679 2.54099e-21)
(2.00027 -0.00244351 -2.14576e-22)
(2.00023 -0.00254972 2.17732e-22)
(2.00018 -0.0026332 0)
(2.00012 -0.00269193 0)
(2.00007 -0.00272398 4.72359e-22)
(2 -0.0027278 1.4467e-21)
(1.99994 -0.00270212 -7.20711e-22)
(1.99988 -0.00264553 0)
(1.99981 -0.00255746 0)
(1.99974 -0.00243833 0)
(1.99968 -0.00228865 0)
(1.99962 -0.00210986 -2.67225e-22)
(1.99957 -0.00190414 -3.38489e-24)
(1.99952 -0.00167436 -2.9593e-24)
(1.99948 -0.00142403 2.73686e-22)
(1.99944 -0.00115726 1.39237e-22)
(1.99942 -0.00087863 7.53782e-25)
(1.99941 -0.000593003 -1.39761e-22)
(1.9994 -0.000305553 4.21901e-22)
(1.99941 -2.16749e-05 -2.80885e-22)
(1.99943 0.000253756 -2.7985e-22)
(1.99946 0.000516223 2.79811e-22)
(1.99949 0.00076158 2.76696e-22)
(1.99953 0.000986369 -2.76658e-22)
(1.99958 0.00118773 0)
(1.99963 0.00136361 0)
(1.99968 0.00151258 -2.65474e-22)
(1.99974 0.00163389 2.65453e-22)
(1.9998 0.00172747 2.58219e-22)
(1.99985 0.0017938 -1.3015e-22)
(1.99991 0.00183375 0)
(1.99996 0.00184859 0)
(2 0.00183991 0)
(2.00005 0.00180945 0)
(2.00009 0.00175908 0)
(2.00013 0.00169077 0)
(2.00016 0.0016064 -1.14672e-22)
(2.00019 0.00150789 -5.62398e-22)
(2.00022 0.00139706 4.49819e-22)
(2.00024 0.00127568 4.38649e-22)
(2.00026 0.00114505 -6.56133e-22)
(2.00028 0.00100649 4.29635e-22)
(2.00029 0.000861612 -4.29646e-22)
(2.0003 0.000711634 0)
(2.00031 0.000557608 0)
(2.00032 0.00040052 -6.83014e-25)
(2.00032 0.000241332 0)
(2.00032 8.0913e-05 0)
(2.00076 -0.000138348 -9.2003e-23)
(2.00076 -0.000415238 0)
(2.00075 -0.000689503 1.48057e-25)
(2.00074 -0.000960025 9.37245e-23)
(2.00072 -0.00122491 0)
(2.0007 -0.00148246 9.21576e-25)
(2.00068 -0.00173083 -1.95126e-22)
(2.00064 -0.00196808 1.9508e-22)
(2.00061 -0.0021921 0)
(2.00056 -0.00240062 0)
(2.00051 -0.00259123 2.05697e-22)
(2.00046 -0.00276104 8.38841e-22)
(2.0004 -0.00290822 -4.30068e-22)
(2.00033 -0.00302975 2.18557e-22)
(2.00025 -0.00312302 0)
(2.00017 -0.00318537 -2.31059e-22)
(2.00008 -0.00321441 2.31149e-22)
(1.99999 -0.00320831 1.01389e-23)
(1.99989 -0.00316507 -1.08627e-21)
(1.99979 -0.00308289 -2.509e-22)
(1.99969 -0.00296141 2.49141e-22)
(1.99959 -0.00280103 -4.59407e-24)
(1.99949 -0.00260241 2.60551e-22)
(1.9994 -0.00236745 0)
(1.99932 -0.00209898 0)
(1.99924 -0.00180077 0)
(1.99918 -0.00147743 0)
(1.99913 -0.00113435 -1.39279e-22)
(1.9991 -0.000777522 0)
(1.99908 -0.000413281 0)
(1.99908 -4.84491e-05 4.27055e-22)
(1.9991 0.000309951 -2.83295e-22)
(1.99913 0.000655667 0)
(1.99917 0.000982905 0)
(1.99923 0.00128642 0)
(1.9993 0.00156192 0)
(1.99937 0.00180591 2.73299e-22)
(1.99945 0.00201595 -3.20495e-24)
(1.99954 0.00219054 -4.04553e-22)
(1.99963 0.00232899 0)
(1.99971 0.00243146 0)
(1.9998 0.00249887 2.54692e-22)
(1.99988 0.00253259 -3.81076e-22)
(1.99996 0.0025345 0)
(2.00003 0.00250681 0)
(2.0001 0.00245191 0)
(2.00017 0.00237238 0)
(2.00022 0.00227077 0)
(2.00027 0.00214958 3.41754e-22)
(2.00032 0.00201133 8.93893e-22)
(2.00036 0.00185833 -8.95057e-22)
(2.00039 0.00169268 4.36073e-22)
(2.00042 0.00151594 -2.18755e-22)
(2.00044 0.00133005 0)
(2.00046 0.00113691 1.05766e-22)
(2.00048 0.000937841 0)
(2.00049 0.000734112 0)
(2.0005 0.000526898 -1.04541e-22)
(2.00051 0.000317287 0)
(2.00051 0.000106314 1.02828e-22)
(2.00106 -0.000161282 1.19074e-24)
(2.00106 -0.000484028 0)
(2.00105 -0.000803652 0)
(2.00103 -0.00111881 -9.2306e-23)
(2.001 -0.00142731 0)
(2.00097 -0.00172706 9.52216e-23)
(2.00094 -0.00201593 -9.65849e-23)
(2.00089 -0.00229148 1.93271e-22)
(2.00084 -0.00255129 0)
(2.00078 -0.00279263 -4.05995e-22)
(2.00071 -0.00301261 2.00331e-22)
(2.00063 -0.00320778 6.07574e-24)
(2.00054 -0.00337538 8.56063e-22)
(2.00044 -0.00351243 -4.38885e-22)
(2.00033 -0.00361547 -4.97758e-24)
(2.00021 -0.00368115 -1.21942e-22)
(2.00009 -0.00370668 2.35073e-21)
(1.99995 -0.00368962 -9.23229e-22)
(1.99982 -0.00362699 -1.58018e-21)
(1.99967 -0.00351711 2.23633e-21)
(1.99953 -0.0033594 2.52841e-22)
(1.99939 -0.00315428 -2.61957e-22)
(1.99925 -0.0029024 -4.63675e-24)
(1.99912 -0.00260619 2.66709e-22)
(1.999 -0.00226917 0)
(1.99889 -0.00189612 0)
(1.99881 -0.00149285 0)
(1.99874 -0.0010662 0)
(1.9987 -0.000623775 1.4312e-22)
(1.99868 -0.000173713 0)
(1.99868 0.00027528 -4.2886e-22)
(1.99871 0.000714356 0)
(1.99875 0.00113562 2.849e-22)
(1.99882 0.00153186 -2.84835e-22)
(1.99891 0.00189661 2.81032e-22)
(1.99901 0.00222471 -2.65573e-24)
(1.99912 0.00251203 -5.5345e-22)
(1.99925 0.00275576 2.75126e-22)
(1.99937 0.00295443 -1.33288e-22)
(1.9995 0.00310748 2.67758e-22)
(1.99963 0.00321552 1.31057e-22)
(1.99975 0.00327997 0)
(1.99987 0.00330292 1.26339e-22)
(1.99998 0.00328702 0)
(2.00009 0.00323522 0)
(2.00019 0.0031507 1.19717e-22)
(2.00027 0.00303682 -1.17563e-22)
(2.00035 0.00289681 0)
(2.00042 0.00273386 1.35782e-21)
(2.00048 0.00255114 8.75901e-22)
(2.00054 0.00235159 -1.78019e-21)
(2.00059 0.0021373 -4.32944e-22)
(2.00062 0.00191043 9.67884e-22)
(2.00066 0.00167359 -4.27852e-22)
(2.00068 0.00142868 -1.05746e-22)
(2.00071 0.00117719 0)
(2.00072 0.000920651 2.0667e-22)
(2.00073 0.000660329 -1.03487e-22)
(2.00074 0.000397427 0)
(2.00075 0.000133083 -1.03433e-24)
(2.00141 -0.00018453 9.07982e-23)
(2.0014 -0.000553798 0)
(2.00138 -0.000919483 0)
(2.00136 -0.00128 9.11467e-23)
(2.00133 -0.00163287 -9.28144e-25)
(2.00129 -0.00197568 9.29792e-23)
(2.00124 -0.00230596 -9.40311e-23)
(2.00118 -0.00262083 -2.90562e-22)
(2.00111 -0.00291747 1.93837e-22)
(2.00102 -0.00319273 -4.02072e-22)
(2.00093 -0.00344321 -1.0922e-22)
(2.00082 -0.00366498 6.1664e-22)
(2.0007 -0.00385427 -1.7008e-21)
(2.00057 -0.00400787 -8.77106e-22)
(2.00042 -0.00412139 8.7736e-22)
(2.00026 -0.00419098 -1.13852e-22)
(2.00009 -0.0042133 2.80681e-21)
(1.99991 -0.00418487 -4.60289e-22)
(1.99972 -0.00410202 -4.88116e-22)
(1.99952 -0.00396288 -1.50106e-21)
(1.99933 -0.00376647 2.57372e-22)
(1.99913 -0.00351317 0)
(1.99894 -0.00320358 0)
(1.99877 -0.00284061 -2.73503e-22)
(1.99861 -0.00242855 -4.19885e-24)
(1.99846 -0.00197323 2.77871e-22)
(1.99835 -0.00148182 0)
(1.99826 -0.00096288 2.87145e-22)
(1.99821 -0.000425902 -4.30144e-22)
(1.99818 0.000118882 0)
(1.99819 0.000660525 1.41828e-22)
(1.99823 0.00118797 -5.79451e-22)
(1.99831 0.00169149 1.13485e-24)
(1.99841 0.00216222 5.74637e-22)
(1.99853 0.00259231 -2.40509e-24)
(1.99868 0.00297563 -2.83857e-22)
(1.99884 0.00330741 0)
(1.99901 0.00358458 2.7351e-22)
(1.99919 0.00380576 -4.16616e-24)
(1.99937 0.00397073 -2.69265e-22)
(1.99954 0.00408072 -2.62585e-22)
(1.99971 0.00413785 0)
(1.99988 0.00414508 0)
(2.00003 0.00410601 -1.24161e-22)
(2.00017 0.00402455 0)
(2.0003 0.00390482 -2.39009e-22)
(2.00042 0.00375102 1.17512e-22)
(2.00053 0.00356725 -2.29732e-22)
(2.00062 0.00335746 -1.35606e-21)
(2.0007 0.0031255 -8.83005e-22)
(2.00077 0.0028747 4.46e-22)
(2.00083 0.00260734 -6.06037e-24)
(2.00088 0.0023266 -6.42264e-22)
(2.00093 0.00203526 2.10722e-22)
(2.00096 0.00173522 0)
(2.00099 0.00142828 0)
(2.00101 0.00111609 -1.1814e-24)
(2.00102 0.000799983 0)
(2.00103 0.00048125 0)
(2.00104 0.000161062 -1.01772e-22)
(2.0018 -0.000208318 0)
(2.00179 -0.000625193 0)
(2.00177 -0.00103804 8.87009e-23)
(2.00174 -0.00144511 -9.09104e-23)
(2.0017 -0.00184362 0)
(2.00164 -0.00223083 -1.8396e-22)
(2.00158 -0.00260397 9.26318e-23)
(2.0015 -0.00295979 9.40542e-23)
(2.00141 -0.00329495 0)
(2.0013 -0.0036059 0)
(2.00118 -0.00388877 -3.05135e-22)
(2.00104 -0.00413911 1.99807e-22)
(2.00088 -0.00435229 8.50747e-22)
(2.00071 -0.00452396 2.57679e-21)
(2.00051 -0.00464971 0)
(2.0003 -0.00472472 -4.52149e-22)
(2.00008 -0.00474498 -1.86304e-21)
(1.99984 -0.00470569 -4.769e-22)
(1.99959 -0.00460251 -9.84119e-22)
(1.99934 -0.00443307 2.41338e-22)
(1.99908 -0.0041958 -5.18288e-22)
(1.99882 -0.00389101 -5.7805e-24)
(1.99857 -0.00351903 -5.48413e-24)
(1.99834 -0.00308324 2.71378e-22)
(1.99813 -0.00258868 0)
(1.99795 -0.00204238 0)
(1.9978 -0.0014531 0)
(1.99768 -0.000831297 1.46348e-22)
(1.99761 -0.000188783 -1.47459e-22)
(1.99759 0.000461641 0)
(1.99761 0.00110642 2.89511e-22)
(1.99767 0.00173185 -2.9431e-22)
(1.99778 0.00232601 0)
(1.99792 0.00287808 0)
(1.9981 0.00337868 4.32907e-22)
(1.9983 0.00382052 -2.87292e-22)
(1.99852 0.00419833 -2.80058e-22)
(1.99875 0.00450879 5.55711e-22)
(1.99899 0.00475075 -2.75649e-22)
(1.99923 0.00492455 0)
(1.99946 0.00503227 3.92598e-22)
(1.99969 0.00507704 -2.61054e-22)
(1.9999 0.00506288 -1.26751e-22)
(2.00011 0.00499456 2.48168e-22)
(2.00029 0.00487717 0)
(2.00046 0.00471593 1.19292e-22)
(2.00061 0.00451603 -2.32869e-22)
(2.00075 0.00428253 2.29612e-22)
(2.00087 0.00402034 -8.79727e-22)
(2.00097 0.00373409 4.6201e-22)
(2.00106 0.00342697 2.18455e-22)
(2.00114 0.00310219 1.06184e-22)
(2.0012 0.00276372 -1.06201e-22)
(2.00125 0.00241419 -1.04723e-22)
(2.00129 0.00205573 2.04862e-22)
(2.00133 0.00169036 -8.63259e-25)
(2.00135 0.00131981 -2.03681e-22)
(2.00137 0.000945412 1.00023e-22)
(2.00138 0.000568468 0)
(2.00139 0.000190157 0)
(2.00224 -0.000232793 0)
(2.00223 -0.000698658 0)
(2.0022 -0.00116014 -1.75549e-22)
(2.00216 -0.00161528 0)
(2.00211 -0.00206108 0)
(2.00205 -0.00249447 1.72664e-24)
(2.00196 -0.00291238 0)
(2.00187 -0.00331126 -9.41268e-23)
(2.00175 -0.00368724 -9.60158e-23)
(2.00161 -0.00403626 9.59628e-23)
(2.00146 -0.00435404 -4.0113e-22)
(2.00128 -0.00463561 4.0112e-22)
(2.00108 -0.00487539 0)
(2.00086 -0.00506776 -2.56155e-21)
(2.00062 -0.00520885 -4.13092e-22)
(2.00035 -0.00529206 4.92348e-22)
(2.00007 -0.00531235 -2.75727e-21)
(1.99976 -0.00526335 9.60144e-22)
(1.99944 -0.0051404 -4.83219e-22)
(1.99912 -0.00494015 0)
(1.99878 -0.00466037 -5.18096e-22)
(1.99845 -0.00430087 0)
(1.99813 -0.00386155 -2.74186e-22)
(1.99783 -0.00334624 2.74301e-22)
(1.99756 -0.00276068 -2.85152e-22)
(1.99733 -0.00211324 1.4024e-22)
(1.99714 -0.0014144 0)
(1.997 -0.000676965 -1.46383e-22)
(1.99691 8.43827e-05 4.47958e-22)
(1.99689 0.000853934 1.50889e-22)
(1.99692 0.00161482 -3.05163e-22)
(1.99701 0.0023501 -1.50497e-22)
(1.99716 0.00304523 2.98676e-22)
(1.99736 0.00368706 0)
(1.99759 0.00426447 1.45907e-22)
(1.99786 0.00476889 -3.76275e-24)
(1.99815 0.00519455 -4.31817e-24)
(1.99846 0.00553801 -2.83025e-22)
(1.99877 0.00579862 2.73053e-22)
(1.99909 0.00597757 -4.08663e-22)
(1.99939 0.00607796 1.32769e-22)
(1.99968 0.00610433 0)
(1.99996 0.0060621 1.26689e-22)
(2.00022 0.00595747 -1.24e-22)
(2.00045 0.00579692 0)
(2.00067 0.00558699 0)
(2.00086 0.00533412 2.32744e-22)
(2.00103 0.00504441 -5.41927e-24)
(2.00117 0.00472373 -1.74991e-23)
(2.0013 0.00437732 8.74372e-22)
(2.00141 0.00400844 2.15952e-22)
(2.0015 0.00362177 1.04987e-22)
(2.00158 0.00322137 1.03434e-22)
(2.00164 0.00280988 -1.28865e-24)
(2.00169 0.00238969 -1.03675e-22)
(2.00173 0.00196297 0)
(2.00176 0.00153139 0)
(2.00178 0.00109628 -1.9842e-22)
(2.00179 0.000658905 0)
(2.00181 0.00022032 0)
(2.00272 -0.000258047 0)
(2.00271 -0.000774527 0)
(2.00268 -0.00128629 6.21856e-25)
(2.00264 -0.00179129 8.62068e-23)
(2.00257 -0.00228626 0)
(2.00249 -0.00276793 8.94795e-23)
(2.00239 -0.00323291 9.07133e-23)
(2.00227 -0.00367737 1.7065e-24)
(2.00213 -0.00409696 1.73856e-24)
(2.00197 -0.00448717 -9.64738e-23)
(2.00178 -0.0048431 9.64687e-23)
(2.00156 -0.00515929 9.93066e-23)
(2.00131 -0.00542953 -2.0416e-22)
(2.00104 -0.00564675 -1.68083e-21)
(2.00074 -0.00580668 -4.46345e-22)
(2.00041 -0.00590149 1.7845e-21)
(2.00005 -0.00592456 1.39475e-21)
(1.99967 -0.00586837 -9.52234e-22)
(1.99927 -0.00572723 9.80929e-22)
(1.99886 -0.00549659 1.52505e-21)
(1.99844 -0.00517319 2.54675e-22)
(1.99802 -0.00475606 -4.82125e-24)
(1.99762 -0.00424434 -2.77502e-22)
(1.99724 -0.00364215 5.61557e-22)
(1.9969 -0.00295591 -2.84064e-22)
(1.9966 -0.00219539 1.45106e-22)
(1.99636 -0.0013731 0)
(1.99618 -0.000504612 1.52136e-22)
(1.99608 0.000391899 1.58651e-22)
(1.99606 0.0012971 -1.50277e-22)
(1.99611 0.00218998 1.49993e-22)
(1.99624 0.00304972 1.51181e-22)
(1.99644 0.00385854 1.49089e-22)
(1.9967 0.00460037 -3.02549e-22)
(1.99701 0.00526214 0)
(1.99737 0.00583391 -2.91631e-22)
(1.99775 0.00630941 4.90171e-24)
(1.99814 0.00668527 2.86488e-22)
(1.99855 0.0069617 -2.75286e-22)
(1.99895 0.00714107 4.91227e-24)
(1.99934 0.00722796 3.01888e-24)
(1.99971 0.00722863 -3.8697e-22)
(2.00005 0.00715031 2.56792e-22)
(2.00037 0.00700099 -1.23709e-22)
(2.00067 0.00678884 -1.2061e-22)
(2.00093 0.00652195 -4.6644e-22)
(2.00116 0.0062082 1.37819e-21)
(2.00136 0.00585482 4.0271e-24)
(2.00154 0.00546889 1.78346e-21)
(2.00169 0.00505579 6.43762e-22)
(2.00182 0.00461962 -1.0904e-22)
(2.00193 0.00416619 -2.10105e-22)
(2.00201 0.00369942 -1.01889e-22)
(2.00209 0.00322207 1.01912e-22)
(2.00214 0.0027368 -1.00754e-22)
(2.00219 0.00224571 -9.85381e-23)
(2.00222 0.00175049 9.85629e-23)
(2.00225 0.00125232 1.04927e-24)
(2.00226 0.00075237 9.73651e-23)
(2.00228 0.000251491 0)
(2.00327 -0.000284146 0)
(2.00325 -0.000852982 0)
(2.00322 -0.00141686 0)
(2.00316 -0.00197364 -8.48551e-23)
(2.00309 -0.0025199 8.48372e-23)
(2.00299 -0.00305222 -8.71699e-23)
(2.00287 -0.00356686 8.71551e-23)
(2.00273 -0.00405978 0)
(2.00256 -0.00452625 0)
(2.00236 -0.00496126 9.4699e-23)
(2.00213 -0.00535937 -1.91882e-22)
(2.00187 -0.00571436 -2.08434e-24)
(2.00157 -0.00601959 4.14554e-22)
(2.00124 -0.00626676 1.26901e-21)
(2.00087 -0.00644955 8.75148e-22)
(2.00047 -0.00656085 -8.76738e-22)
(2.00003 -0.00659109 -9.25907e-22)
(1.99957 -0.00653189 5.86083e-22)
(1.99907 -0.00637579 -4.91022e-22)
(1.99856 -0.00611678 7.43587e-24)
(1.99804 -0.00574969 -1.0621e-21)
(1.99753 -0.00527178 2.14725e-21)
(1.99702 -0.00468242 -2.73744e-22)
(1.99655 -0.00398533 0)
(1.99611 -0.0031874 0)
(1.99574 -0.00229982 0)
(1.99544 -0.00133751 0)
(1.99523 -0.000319207 -1.52192e-22)
(1.99511 0.000732354 1.63292e-22)
(1.99509 0.00179355 2.56434e-24)
(1.99517 0.00283809 0)
(1.99534 0.00384025 1.53325e-22)
(1.99561 0.0047782 -1.57783e-22)
(1.99595 0.00563246 1.55631e-22)
(1.99636 0.00638747 3.01421e-22)
(1.99681 0.00703197 -4.52196e-22)
(1.9973 0.00755925 -2.90569e-22)
(1.99781 0.00796639 1.45653e-22)
(1.99832 0.00825474 0)
(1.99882 0.00842841 1.36613e-22)
(1.99931 0.00849403 -7.86668e-25)
(1.99976 0.00846004 -4.22792e-25)
(2.00019 0.00833598 -1.26909e-22)
(2.00058 0.00813201 -2.4363e-22)
(2.00094 0.00785835 3.6437e-22)
(2.00125 0.00752487 -9.25938e-22)
(2.00153 0.00714109 9.25834e-22)
(2.00177 0.00671591 -1.79313e-21)
(2.00198 0.00625689 1.94791e-21)
(2.00215 0.00577011 -6.45055e-22)
(2.0023 0.00526074 0)
(2.00242 0.00473529 1.01738e-22)
(2.00252 0.00419742 -1.01763e-22)
(2.0026 0.00365022 0)
(2.00267 0.00309645 0)
(2.00272 0.00253809 0)
(2.00275 0.00197671 0)
(2.00278 0.00141322 0)
(2.0028 0.000848665 0)
(2.00281 0.000283594 0)
(2.00386 -0.000311129 0)
(2.00385 -0.000934156 0)
(2.0038 -0.00155206 0)
(2.00374 -0.00216272 0)
(2.00365 -0.00276253 0)
(2.00354 -0.00334806 8.48565e-23)
(2.0034 -0.00391525 -1.71259e-22)
(2.00323 -0.00445988 8.64129e-23)
(2.00303 -0.00497696 -9.03331e-23)
(2.0028 -0.00546092 -2.35582e-24)
(2.00253 -0.00590579 9.26808e-23)
(2.00222 -0.00630474 0)
(2.00187 -0.00665032 -2.04246e-22)
(2.00147 -0.00693348 -6.36576e-22)
(2.00103 -0.00714571 4.26316e-21)
(2.00055 -0.00727984 -1.73525e-21)
(2.00002 -0.0073228 9.13707e-22)
(1.99946 -0.00726606 -4.003e-25)
(1.99886 -0.00709965 6.1368e-22)
(1.99824 -0.00681541 -1.01228e-21)
(1.9976 -0.00640533 -2.11222e-21)
(1.99696 -0.00586509 5.65592e-24)
(1.99633 -0.00519354 0)
(1.99575 -0.00439315 -2.93654e-22)
(1.99521 -0.00347113 -7.30333e-24)
(1.99475 -0.00244026 3.01407e-22)
(1.99437 -0.00131803 0)
(1.99411 -0.000127263 0)
(1.99397 0.00110393 -1.54784e-22)
(1.99395 0.00234617 -3.17718e-22)
(1.99406 0.00356664 3.20976e-22)
(1.9943 0.00473331 -1.62649e-22)
(1.99465 0.00581922 0)
(1.99509 0.00680079 -4.68242e-22)
(1.99561 0.00765952 1.5542e-22)
(1.99619 0.0083827 2.98512e-22)
(1.99681 0.00896337 -3.01441e-22)
(1.99745 0.00939964 1.44705e-22)
(1.99809 0.00969456 1.37452e-22)
(1.99871 0.00985455 -4.19246e-22)
(1.99931 0.00988905 -8.0413e-25)
(1.99987 0.00980935 -3.87186e-25)
(2.00038 0.00962783 1.26806e-22)
(2.00085 0.00935737 3.43891e-25)
(2.00127 0.00901061 0)
(2.00165 0.00859965 8.56588e-24)
(2.00197 0.00813565 9.1712e-22)
(2.00225 0.00762911 -1.75115e-21)
(2.00249 0.00708802 8.15293e-23)
(2.00269 0.00652018 -1.0627e-22)
(2.00286 0.00593128 0)
(2.00299 0.00532814 9.98396e-23)
(2.0031 0.00471437 -9.98677e-23)
(2.00319 0.0040933 0)
(2.00326 0.00346766 0)
(2.00331 0.00283917 0)
(2.00335 0.0022092 9.38019e-23)
(2.00338 0.00157836 -9.38275e-23)
(2.0034 0.000947432 0)
(2.00341 0.000316505 0)
(2.00451 -0.000339029 0)
(2.00449 -0.00101807 0)
(2.00444 -0.00169199 0)
(2.00437 -0.00235869 0)
(2.00427 -0.00301447 0)
(2.00414 -0.00365596 -8.22841e-23)
(2.00398 -0.00427886 1.66162e-22)
(2.00379 -0.00487881 1.90268e-24)
(2.00356 -0.00545066 2.17617e-24)
(2.00329 -0.00598828 9.28585e-23)
(2.00297 -0.00648528 -2.73934e-22)
(2.00261 -0.0069342 -3.02607e-24)
(2.0022 -0.00732671 9.61638e-23)
(2.00174 -0.007653 -2.08257e-22)
(2.00122 -0.0079029 -1.25594e-21)
(2.00065 -0.00806698 -1.30069e-21)
(2.00002 -0.00813078 -2.14347e-23)
(1.99935 -0.00808419 9.85422e-23)
(1.99863 -0.00791417 3.58581e-22)
(1.99787 -0.00760961 -1.53932e-21)
(1.9971 -0.00715944 -1.6208e-21)
(1.99632 -0.00655719 -5.47639e-22)
(1.99555 -0.00579974 0)
(1.99483 -0.00488743 -2.99513e-22)
(1.99416 -0.00382758 -8.37127e-24)
(1.99359 -0.00263444 3.08425e-22)
(1.99313 -0.00132855 1.6204e-22)
(1.9928 6.24702e-05 0)
(1.99263 0.00150345 3.33852e-22)
(1.99262 0.00295795 -5.00996e-22)
(1.99278 0.00438446 1.65349e-22)
(1.99309 0.00574293 -3.28827e-22)
(1.99354 0.00699992 4.87651e-22)
(1.99411 0.00812652 -4.55159e-24)
(1.99477 0.00910104 -1.63319e-22)
(1.99551 0.00990921 1.53936e-22)
(1.99628 0.0105442 0)
(1.99708 0.0110059 0)
(1.99786 0.0112999 -1.40421e-22)
(1.99863 0.0114358 2.81869e-22)
(1.99935 0.0114267 1.34735e-22)
(2.00003 0.0112875 -3.17975e-25)
(2.00064 0.0110343 -2.53172e-22)
(2.0012 0.0106831 -3.60071e-22)
(2.00169 0.0102496 1.4295e-21)
(2.00213 0.0097484 -9.25545e-22)
(2.0025 0.00919265 4.40741e-22)
(2.00282 0.00859402 1.30923e-21)
(2.00309 0.00796148 -1.49642e-21)
(2.00331 0.0073048 -2.08939e-22)
(2.00349 0.00662949 0)
(2.00364 0.0059428 -9.77056e-23)
(2.00376 0.00524829 9.77416e-23)
(2.00385 0.00454943 0)
(2.00392 0.0038487 9.32323e-23)
(2.00398 0.00314749 -9.32602e-23)
(2.00402 0.00244684 0)
(2.00404 0.00174692 0)
(2.00406 0.00104811 0)
(2.00408 0.000350045 0)
(2.00521 -0.000367857 0)
(2.0052 -0.00110477 0)
(2.00514 -0.00183673 0)
(2.00506 -0.00256164 0)
(2.00495 -0.00327592 0)
(2.0048 -0.00397627 0)
(2.00462 -0.00465821 -8.11038e-23)
(2.0044 -0.00531742 -1.96046e-24)
(2.00414 -0.00594852 -8.75425e-23)
(2.00383 -0.00654518 8.27326e-23)
(2.00347 -0.00710039 -9.35465e-23)
(2.00306 -0.00760617 1.81375e-22)
(2.00258 -0.00805336 -1.94733e-22)
(2.00205 -0.00843129 -7.65149e-24)
(2.00145 -0.00872806 1.85252e-21)
(2.00078 -0.0089317 -4.39379e-22)
(2.00004 -0.00902724 -9.16282e-22)
(1.99924 -0.00900123 -1.38545e-22)
(1.99839 -0.00883724 -2.11607e-23)
(1.99749 -0.00852044 1.52463e-21)
(1.99655 -0.00803596 -2.82002e-23)
(1.99561 -0.0073741 -2.83947e-22)
(1.99467 -0.00652838 4.30546e-22)
(1.99378 -0.00549575 1.52128e-22)
(1.99296 -0.00428303 0)
(1.99224 -0.00290557 1.62931e-22)
(1.99167 -0.00138738 -1.62159e-22)
(1.99128 0.000237881 3.3763e-22)
(1.99107 0.00192635 -5.00767e-22)
(1.99107 0.00363202 5.10793e-22)
(1.99128 0.00530233 -1.71052e-22)
(1.99168 0.00688647 3.396e-22)
(1.99226 0.00834274 -1.73006e-22)
(1.99299 0.00963565 4.98684e-22)
(1.99383 0.0107397 -6.78395e-24)
(1.99475 0.0116391 -4.83522e-22)
(1.99572 0.0123281 -3.05429e-22)
(1.99669 0.0128092 3.05214e-22)
(1.99766 0.0130917 0)
(1.99858 0.0131897 1.40009e-22)
(1.99946 0.0131211 -1.36146e-22)
(2.00026 0.0129055 -1.31286e-22)
(2.00099 0.0125632 5.54367e-25)
(2.00164 0.0121143 0)
(2.00221 0.011578 9.28306e-22)
(2.00271 0.0109723 -1.80912e-21)
(2.00313 0.0103114 -6.57311e-22)
(2.00349 0.00960867 -2.17039e-22)
(2.00378 0.00887503 1.02358e-22)
(2.00402 0.00812111 -7.01184e-22)
(2.00422 0.00735215 2.96949e-22)
(2.00437 0.00657605 -9.74239e-23)
(2.0045 0.00579615 0)
(2.00459 0.00501582 0)
(2.00466 0.00423709 0)
(2.00471 0.00346089 -8.96525e-23)
(2.00475 0.00268787 8.29473e-25)
(2.00478 0.00191762 8.88932e-23)
(2.00479 0.00114998 0)
(2.00481 0.000383959 0)
(2.00598 -0.000397552 -7.17158e-23)
(2.00596 -0.00119415 7.1929e-23)
(2.0059 -0.00198615 0)
(2.00581 -0.00277144 -7.3783e-23)
(2.00568 -0.00354673 7.37613e-23)
(2.00552 -0.00430889 0)
(2.00532 -0.00505346 7.80276e-23)
(2.00508 -0.00577612 2.00943e-24)
(2.00479 -0.00647143 -1.62333e-22)
(2.00444 -0.00713296 -8.7588e-23)
(2.00403 -0.00775324 8.19755e-23)
(2.00357 -0.00832376 8.79126e-23)
(2.00303 -0.00883467 0)
(2.00241 -0.0092743 0)
(2.00172 -0.00962937 -2.10639e-22)
(2.00095 -0.00988494 -6.3983e-22)
(2.00009 -0.0100255 8.7914e-22)
(1.99916 -0.0100336 -7.08627e-22)
(1.99815 -0.00988889 -2.33739e-23)
(1.99708 -0.00957182 1.02545e-21)
(1.99596 -0.00906275 3.75609e-21)
(1.99482 -0.00834722 -5.75886e-22)
(1.99368 -0.00741331 4.26973e-22)
(1.99258 -0.00625304 1.49183e-22)
(1.99157 -0.00487136 0)
(1.99069 -0.003284 -1.63049e-22)
(1.98998 -0.00151894 0)
(1.98949 0.000382717 1.75213e-22)
(1.98924 0.00236583 2.14757e-24)
(1.98925 0.00437193 -7.13451e-22)
(1.98952 0.0063335 1.08226e-21)
(1.99004 0.00818582 -2.68801e-24)
(1.99078 0.00987597 -3.51701e-22)
(1.99171 0.0113605 5.93608e-24)
(1.99277 0.0126092 -1.60748e-22)
(1.99392 0.0136055 4.9234e-22)
(1.99511 0.0143459 0)
(1.99631 0.0148371 0)
(1.99748 0.0150936 -2.89369e-22)
(1.9986 0.0151357 1.09427e-23)
(1.99964 0.0149872 5.50807e-22)
(2.00059 0.0146738 -7.45305e-26)
(2.00144 0.0142215 9.963e-25)
(2.00219 0.0136551 9.63151e-22)
(2.00284 0.0129978 -5.56855e-21)
(2.0034 0.0122704 2.24789e-21)
(2.00387 0.0114887 4.32476e-22)
(2.00426 0.0106695 0)
(2.00458 0.0098245 0)
(2.00484 0.00896429 3.98972e-22)
(2.00504 0.00809448 9.48103e-23)
(2.0052 0.00722333 -9.48429e-23)
(2.00532 0.00635366 0)
(2.00541 0.00548856 -8.92149e-23)
(2.00548 0.00462941 8.92484e-23)
(2.00553 0.0037766 0)
(2.00556 0.00293011 0)
(2.00558 0.00208884 8.5462e-23)
(2.0056 0.00125203 -8.5499e-23)
(2.00562 0.000417909 0)
(2.0068 -0.000428102 0)
(2.00678 -0.00128608 0)
(2.00672 -0.0021399 6.94816e-23)
(2.00662 -0.00298773 -6.94577e-23)
(2.00648 -0.00382656 0)
(2.00631 -0.00465347 0)
(2.00609 -0.00546434 -7.46488e-23)
(2.00582 -0.00625483 -2.04601e-24)
(2.0055 -0.00701961 1.55698e-22)
(2.00511 -0.00775232 -7.90228e-23)
(2.00466 -0.00844519 -1.6959e-22)
(2.00414 -0.00908931 7.78194e-23)
(2.00354 -0.00967423 1.76507e-22)