# y+ ()       
# Time        	patch         	min           	max           	average       
0             	airfoil	4.456034e+01	4.788941e+01	4.780614e+01
500           	airfoil	1.820167e+00	6.345620e+01	2.407340e+01
