/*--------------------------------*- C++ -*----------------------------------*\
  =========                 |
  \\      /  F ield         | OpenFOAM: The Open Source CFD Toolbox
   \\    /   O peration     | Website:  https://openfoam.org
    \\  /    A nd           | Version:  12
     \\/     M anipulation  |
\*---------------------------------------------------------------------------*/
FoamFile
{
    format      ascii;
    class       volScalarField;
    location    "240";
    object      k;
}
// * * * * * * * * * * * * * * * * * * * * * * * * * * * * * * * * * * * * * //

dimensions      [0 2 -2 0 0 0 0];

internalField   nonuniform List<scalar> 
16227
(
0.00914646
0.00914648
0.00914647
0.00914651
0.0091465
0.00914654
0.00914653
0.00914652
0.00914651
0.00914653
0.00914657
0.00914659
0.00914665
0.00914665
0.00914665
0.00914665
0.00914665
0.00914665
0.00914665
0.00914665
0.00914665
0.00914665
0.00914665
0.00914665
0.00914665
0.00914665
0.00914665
0.00914666
0.00914667
0.00914664
0.00914665
0.00914665
0.00914665
0.00914665
0.00914665
0.00914665
0.00914665
0.00914665
0.00914665
0.00914665
0.00914665
0.00914665
0.00914665
0.00914665
0.00914665
0.00914665
0.00914665
0.00914663
0.00914662
0.00914662
0.00914662
0.00914661
0.00914654
0.00914654
0.00914649
0.00914649
0.00914651
0.00914649
0.00914647
0.00914646
0.00848123
0.00848125
0.00848124
0.00848128
0.00848128
0.00848132
0.00848131
0.00848128
0.00848129
0.0084813
0.00848136
0.00848138
0.00848152
0.00848158
0.00848159
0.00848159
0.00848159
0.00848159
0.00848159
0.00848159
0.0084816
0.00848162
0.00848161
0.00848161
0.00848161
0.00848161
0.00848161
0.0084816
0.00848158
0.00848153
0.00848158
0.0084816
0.0084816
0.0084816
0.0084816
0.00848158
0.00848157
0.00848157
0.00848157
0.00848157
0.00848157
0.00848157
0.00848157
0.00848156
0.00848156
0.00848155
0.00848155
0.00848155
0.00848155
0.00848154
0.00848151
0.00848146
0.00848134
0.00848132
0.00848129
0.00848127
0.0084813
0.00848122
0.00848124
0.00848121
0.00790078
0.00790079
0.0079008
0.00790082
0.00790081
0.0079009
0.00790086
0.00790084
0.00790085
0.00790086
0.00790091
0.00790093
0.00790118
0.00790124
0.00790125
0.00790126
0.00790126
0.00790125
0.00790128
0.00790122
0.00790125
0.00790126
0.00790125
0.00790125
0.00790124
0.00790124
0.00790123
0.00790123
0.00790122
0.00790114
0.0079012
0.0079012
0.0079012
0.0079012
0.0079012
0.0079012
0.0079012
0.00790119
0.00790118
0.00790118
0.00790118
0.00790118
0.00790117
0.00790116
0.00790117
0.00790117
0.00790116
0.00790117
0.00790116
0.00790114
0.0079011
0.0079009
0.00790083
0.00790082
0.0079008
0.00790079
0.00790083
0.00790073
0.00790075
0.00790072
0.00739029
0.00739031
0.00739032
0.00739033
0.00739034
0.00739041
0.00739041
0.00739038
0.00739038
0.00739038
0.00739043
0.00739049
0.00739075
0.00739083
0.00739084
0.00739086
0.00739086
0.00739088
0.00739081
0.00739068
0.00739079
0.00739082
0.00739081
0.0073908
0.0073908
0.00739079
0.00739077
0.00739075
0.00739072
0.00739063
0.00739069
0.0073907
0.00739069
0.00739068
0.00739068
0.00739068
0.00739068
0.00739067
0.00739068
0.00739067
0.00739068
0.00739068
0.00739067
0.00739068
0.00739068
0.00739067
0.00739068
0.00739068
0.00739069
0.00739066
0.00739055
0.00739035
0.00739026
0.00739028
0.00739028
0.0073903
0.00739028
0.00739021
0.00739021
0.00739019
0.00693818
0.0069382
0.00693821
0.00693823
0.00693823
0.00693829
0.00693832
0.00693826
0.00693828
0.00693829
0.00693833
0.00693839
0.00693864
0.00693877
0.00693879
0.00693879
0.00693879
0.00693876
0.00693854
0.00693846
0.00693865
0.00693871
0.00693869
0.00693866
0.00693864
0.00693861
0.00693859
0.00693857
0.00693852
0.0069384
0.00693847
0.00693848
0.00693848
0.00693846
0.00693845
0.00693845
0.00693845
0.00693846
0.00693846
0.00693846
0.00693847
0.00693849
0.00693848
0.00693849
0.0069385
0.00693851
0.00693852
0.00693853
0.00693853
0.00693845
0.00693822
0.00693811
0.00693804
0.00693808
0.00693811
0.00693816
0.0069381
0.00693803
0.00693803
0.00693801
0.00653523
0.00653526
0.00653525
0.00653527
0.00653528
0.00653533
0.00653538
0.00653533
0.00653531
0.00653532
0.00653533
0.00653537
0.00653549
0.00653578
0.00653585
0.00653586
0.00653586
0.00653575
0.0065355
0.00653545
0.00653565
0.0065357
0.00653566
0.00653562
0.00653559
0.00653555
0.00653551
0.00653547
0.0065354
0.00653528
0.00653534
0.00653534
0.00653533
0.00653532
0.00653531
0.00653531
0.00653531
0.00653532
0.00653532
0.00653534
0.00653535
0.00653537
0.00653538
0.00653541
0.00653542
0.00653544
0.00653546
0.00653548
0.00653548
0.00653535
0.00653513
0.00653502
0.006535
0.00653505
0.00653511
0.00653511
0.00653506
0.006535
0.006535
0.00653499
0.00617404
0.00617406
0.00617406
0.00617408
0.00617408
0.00617413
0.00617418
0.00617417
0.00617413
0.00617413
0.00617413
0.00617413
0.00617424
0.00617451
0.00617465
0.00617467
0.00617463
0.00617433
0.0061742
0.00617418
0.00617438
0.0061744
0.00617435
0.0061743
0.00617424
0.00617418
0.00617412
0.00617406
0.00617399
0.00617383
0.00617389
0.00617388
0.00617386
0.00617385
0.00617384
0.00617384
0.00617385
0.00617387
0.00617388
0.00617392
0.00617394
0.00617397
0.006174
0.00617403
0.00617407
0.00617409
0.00617412
0.00617415
0.0061741
0.00617385
0.00617374
0.00617368
0.0061737
0.00617378
0.00617381
0.00617381
0.00617377
0.00617372
0.00617374
0.00617372
0.00584861
0.00584862
0.00584862
0.00584864
0.00584864
0.00584868
0.00584873
0.00584873
0.0058487
0.00584867
0.00584866
0.00584863
0.00584869
0.00584883
0.00584912
0.0058492
0.00584913
0.00584878
0.00584866
0.00584863
0.00584883
0.00584884
0.00584876
0.00584868
0.00584859
0.00584851
0.00584844
0.00584835
0.00584825
0.00584808
0.00584813
0.00584811
0.00584809
0.00584807
0.00584806
0.00584807
0.00584808
0.0058481
0.00584814
0.00584818
0.00584823
0.00584826
0.00584831
0.00584837
0.00584842
0.00584846
0.00584851
0.00584854
0.00584844
0.00584821
0.00584811
0.0058481
0.00584817
0.00584823
0.00584825
0.00584826
0.00584823
0.00584819
0.00584821
0.00584819
0.005554
0.005554
0.00555401
0.00555402
0.00555403
0.00555406
0.0055541
0.0055541
0.00555411
0.00555406
0.00555404
0.00555399
0.00555402
0.00555412
0.00555446
0.00555456
0.0055544
0.00555407
0.00555395
0.0055539
0.00555408
0.00555406
0.00555396
0.00555385
0.00555374
0.00555363
0.00555351
0.00555341
0.00555329
0.00555309
0.00555312
0.0055531
0.00555307
0.00555305
0.00555304
0.00555305
0.00555307
0.00555312
0.00555316
0.00555321
0.00555328
0.00555335
0.00555341
0.00555348
0.00555355
0.00555363
0.00555368
0.00555366
0.00555343
0.00555335
0.00555331
0.00555338
0.00555343
0.00555349
0.00555352
0.00555354
0.00555353
0.00555349
0.0055535
0.00555351
0.00528614
0.00528615
0.00528614
0.00528616
0.00528616
0.00528619
0.00528624
0.00528623
0.00528623
0.00528622
0.00528617
0.00528611
0.00528613
0.00528624
0.00528651
0.0052866
0.00528628
0.00528607
0.00528597
0.00528592
0.00528606
0.00528601
0.00528588
0.00528574
0.00528559
0.00528545
0.00528531
0.00528517
0.00528502
0.00528481
0.00528482
0.00528478
0.00528474
0.00528472
0.00528471
0.00528473
0.00528477
0.00528482
0.00528489
0.00528496
0.00528504
0.00528513
0.00528524
0.00528534
0.00528543
0.00528552
0.00528559
0.00528555
0.00528533
0.00528527
0.00528531
0.00528537
0.00528543
0.00528551
0.00528555
0.00528558
0.00528557
0.00528555
0.00528556
0.00528557
0.00504163
0.00504164
0.00504164
0.00504165
0.00504166
0.00504169
0.00504172
0.00504171
0.00504171
0.0050417
0.00504168
0.00504159
0.00504156
0.00504161
0.00504172
0.00504193
0.00504163
0.00504146
0.00504134
0.00504126
0.00504133
0.00504129
0.00504114
0.00504095
0.00504077
0.00504059
0.00504041
0.00504024
0.00504006
0.00503982
0.00503981
0.00503976
0.00503971
0.00503968
0.00503969
0.00503971
0.00503977
0.00503983
0.00503993
0.00504003
0.00504014
0.00504026
0.00504039
0.00504051
0.00504063
0.00504074
0.00504076
0.00504068
0.00504059
0.00504058
0.00504064
0.00504072
0.0050408
0.00504089
0.00504094
0.00504098
0.00504098
0.00504096
0.00504099
0.00504099
0.00481762
0.00481763
0.00481764
0.00481765
0.00481765
0.00481768
0.00481771
0.00481771
0.0048177
0.00481769
0.00481766
0.0048176
0.00481753
0.00481753
0.0048176
0.00481776
0.00481754
0.00481735
0.0048172
0.00481708
0.00481698
0.00481701
0.00481686
0.00481664
0.00481642
0.00481619
0.00481598
0.00481577
0.00481555
0.00481528
0.00481526
0.00481519
0.00481513
0.0048151
0.00481511
0.00481515
0.00481521
0.00481531
0.00481542
0.00481555
0.00481569
0.00481584
0.004816
0.00481617
0.00481631
0.0048164
0.00481635
0.00481637
0.00481637
0.00481639
0.00481648
0.00481658
0.00481668
0.00481677
0.00481684
0.00481689
0.0048169
0.00481689
0.00481692
0.00481692
0.00461171
0.00461172
0.00461172
0.00461173
0.00461174
0.00461177
0.00461179
0.0046118
0.00461178
0.00461177
0.00461175
0.00461168
0.00461161
0.00461154
0.00461152
0.00461152
0.00461147
0.00461134
0.00461116
0.00461099
0.00461082
0.00461085
0.00461067
0.00461041
0.00461013
0.00460986
0.00460959
0.00460934
0.00460909
0.00460879
0.00460874
0.00460865
0.00460858
0.00460856
0.00460857
0.00460862
0.00460871
0.00460882
0.00460897
0.00460913
0.00460931
0.00460951
0.0046097
0.00460989
0.00461005
0.00461015
0.00461013
0.00461023
0.00461024
0.0046103
0.00461041
0.00461053
0.00461065
0.00461075
0.00461084
0.00461089
0.00461092
0.00461092
0.00461095
0.00461096
0.00442183
0.00442185
0.00442185
0.00442185
0.00442186
0.00442189
0.00442191
0.00442192
0.0044219
0.00442189
0.00442186
0.00442179
0.00442173
0.00442165
0.00442156
0.00442153
0.00442151
0.00442137
0.00442116
0.00442096
0.00442074
0.00442073
0.0044205
0.00442018
0.00441986
0.00441953
0.00441921
0.00441891
0.00441861
0.00441828
0.00441819
0.00441809
0.00441801
0.00441799
0.00441801
0.00441808
0.0044182
0.00441834
0.00441852
0.00441873
0.00441895
0.00441918
0.00441941
0.00441963
0.00441976
0.00441984
0.00441997
0.00442009
0.00442016
0.00442026
0.00442039
0.00442053
0.00442067
0.00442078
0.00442088
0.00442095
0.00442098
0.004421
0.00442103
0.00442104
0.00424622
0.00424624
0.00424624
0.00424625
0.00424626
0.00424629
0.00424631
0.00424632
0.00424631
0.00424629
0.00424626
0.0042462
0.00424612
0.00424604
0.00424595
0.00424589
0.00424586
0.00424569
0.00424545
0.00424521
0.00424495
0.00424488
0.0042446
0.00424422
0.00424384
0.00424345
0.00424307
0.00424272
0.00424237
0.00424199
0.00424188
0.00424176
0.00424167
0.00424165
0.00424168
0.00424177
0.00424192
0.00424211
0.00424232
0.00424257
0.00424283
0.00424311
0.00424338
0.0042436
0.00424368
0.00424388
0.00424406
0.00424423
0.00424436
0.00424449
0.00424467
0.00424483
0.00424497
0.00424511
0.00424521
0.0042453
0.00424534
0.00424537
0.0042454
0.00424541
0.00408338
0.00408339
0.0040834
0.00408341
0.00408342
0.00408345
0.00408348
0.00408348
0.00408348
0.00408347
0.00408343
0.00408337
0.0040833
0.0040832
0.0040831
0.00408304
0.00408297
0.00408279
0.00408251
0.00408223
0.00408193
0.00408175
0.00408145
0.00408102
0.00408056
0.00408011
0.00407967
0.00407925
0.00407884
0.00407842
0.00407827
0.00407813
0.00407804
0.00407802
0.00407806
0.00407819
0.00407836
0.00407859
0.00407885
0.00407915
0.00407946
0.00407979
0.00408011
0.00408033
0.00408048
0.00408071
0.00408095
0.00408112
0.0040813
0.0040815
0.00408171
0.00408189
0.00408206
0.00408222
0.00408234
0.00408243
0.00408248
0.00408252
0.00408256
0.00408257
0.00393199
0.003932
0.00393201
0.00393202
0.00393204
0.00393207
0.0039321
0.00393211
0.00393211
0.0039321
0.00393207
0.003932
0.00393193
0.00393183
0.00393173
0.00393164
0.00393157
0.00393134
0.00393105
0.0039307
0.00393034
0.00392998
0.00392972
0.00392927
0.00392874
0.0039282
0.00392768
0.00392719
0.00392673
0.00392626
0.00392607
0.0039259
0.0039258
0.00392578
0.00392585
0.003926
0.00392622
0.00392649
0.00392681
0.00392716
0.00392754
0.00392791
0.0039282
0.00392844
0.00392872
0.00392902
0.00392931
0.00392952
0.00392974
0.00392999
0.00393022
0.00393043
0.00393062
0.00393079
0.00393092
0.00393103
0.00393109
0.00393113
0.00393118
0.00393119
0.00379091
0.00379092
0.00379093
0.00379095
0.00379097
0.003791
0.00379103
0.00379104
0.00379105
0.00379105
0.00379102
0.00379096
0.00379089
0.00379079
0.00379067
0.00379058
0.00379048
0.00379025
0.00378992
0.00378952
0.0037891
0.00378864
0.00378834
0.00378783
0.00378722
0.0037866
0.00378599
0.00378542
0.00378488
0.00378435
0.00378412
0.00378392
0.00378381
0.0037838
0.0037839
0.00378409
0.00378435
0.00378468
0.00378507
0.00378548
0.00378591
0.0037863
0.00378656
0.00378692
0.00378729
0.00378767
0.003788
0.00378826
0.00378853
0.00378881
0.00378907
0.0037893
0.00378951
0.0037897
0.00378985
0.00378996
0.00379003
0.00379009
0.00379013
0.00379015
0.00365914
0.00365916
0.00365917
0.00365919
0.00365921
0.00365925
0.00365929
0.00365931
0.00365932
0.00365932
0.0036593
0.00365925
0.00365918
0.00365908
0.00365896
0.00365886
0.00365874
0.00365849
0.00365814
0.0036577
0.00365722
0.00365671
0.00365628
0.00365572
0.00365502
0.0036543
0.0036536
0.00365293
0.00365231
0.00365172
0.00365143
0.00365121
0.00365109
0.00365109
0.00365122
0.00365145
0.00365177
0.00365217
0.00365261
0.00365308
0.00365358
0.00365401
0.00365434
0.00365478
0.00365523
0.00365565
0.00365599
0.00365631
0.00365665
0.00365697
0.00365726
0.00365752
0.00365774
0.00365795
0.00365811
0.00365823
0.00365831
0.00365838
0.00365842
0.00365845
0.00353582
0.00353583
0.00353585
0.00353587
0.0035359
0.00353595
0.00353599
0.00353602
0.00353604
0.00353605
0.00353604
0.003536
0.00353593
0.00353584
0.00353573
0.0035356
0.00353546
0.00353521
0.00353483
0.00353437
0.00353382
0.00353323
0.0035326
0.00353204
0.00353129
0.00353046
0.00352964
0.00352886
0.00352815
0.00352748
0.00352714
0.00352688
0.00352676
0.00352678
0.00352694
0.00352722
0.0035276
0.00352807
0.00352856
0.00352908
0.00352961
0.00353009
0.00353059
0.00353112
0.00353164
0.0035321
0.00353249
0.00353287
0.00353325
0.00353361
0.00353392
0.0035342
0.00353445
0.00353467
0.00353484
0.00353497
0.00353507
0.00353513
0.00353519
0.00353522
0.00342016
0.00342018
0.0034202
0.00342023
0.00342026
0.00342032
0.00342037
0.00342041
0.00342044
0.00342046
0.00342046
0.00342043
0.00342038
0.0034203
0.00342017
0.00342001
0.00341985
0.00341962
0.00341925
0.00341876
0.00341817
0.00341749
0.00341676
0.00341613
0.00341527
0.00341431
0.00341337
0.00341246
0.00341163
0.00341087
0.00341046
0.00341017
0.00341004
0.00341008
0.00341029
0.00341063
0.00341109
0.00341161
0.00341217
0.00341278
0.00341332
0.00341392
0.00341455
0.00341517
0.00341575
0.00341623
0.00341668
0.00341713
0.00341757
0.00341795
0.0034183
0.0034186
0.00341886
0.00341909
0.00341928
0.00341942
0.00341952
0.0034196
0.00341965
0.00341968
0.0033115
0.00331153
0.00331155
0.00331158
0.00331162
0.00331168
0.00331174
0.00331179
0.00331184
0.00331187
0.00331189
0.00331188
0.00331185
0.00331177
0.00331166
0.0033115
0.00331133
0.00331111
0.00331073
0.00331021
0.00330959
0.00330886
0.00330804
0.00330729
0.00330632
0.00330523
0.00330412
0.00330308
0.00330212
0.00330125
0.00330076
0.00330043
0.00330029
0.00330035
0.00330061
0.00330102
0.00330153
0.00330212
0.00330279
0.0033035
0.00330414
0.00330485
0.00330558
0.00330627
0.00330689
0.00330742
0.00330794
0.00330845
0.00330891
0.00330933
0.0033097
0.00331002
0.0033103
0.00331054
0.00331073
0.00331089
0.003311
0.00331108
0.00331114
0.00331117
0.00320923
0.00320926
0.00320928
0.00320932
0.00320937
0.00320944
0.00320951
0.00320958
0.00320964
0.00320969
0.00320972
0.00320973
0.00320972
0.00320967
0.00320957
0.00320943
0.00320926
0.00320904
0.00320867
0.00320815
0.00320749
0.00320671
0.00320584
0.0032049
0.00320393
0.00320266
0.00320139
0.00320017
0.00319906
0.00319807
0.00319749
0.00319712
0.00319697
0.00319707
0.00319738
0.00319787
0.00319835
0.00319903
0.00319975
0.00320056
0.00320139
0.00320223
0.00320304
0.00320377
0.00320443
0.00320505
0.00320564
0.0032062
0.0032067
0.00320714
0.00320753
0.00320787
0.00320816
0.00320842
0.00320862
0.00320878
0.0032089
0.00320898
0.00320905
0.00320908
0.00311281
0.00311284
0.00311287
0.00311292
0.00311297
0.00311305
0.00311313
0.00311321
0.00311329
0.00311337
0.00311342
0.00311346
0.00311347
0.00311345
0.00311338
0.00311325
0.00311307
0.00311284
0.00311252
0.00311203
0.00311137
0.00311057
0.00310966
0.00310914
0.00315418
0.00315288
0.00315149
0.00315016
0.00314895
0.00314787
0.00314723
0.00314683
0.00314668
0.00314679
0.00314714
0.00314765
0.00310142
0.00310183
0.00310269
0.00310363
0.00310459
0.00310553
0.00310641
0.00310718
0.00310791
0.00310861
0.00310926
0.00310986
0.00311038
0.00311085
0.00311126
0.00311162
0.00311192
0.00311219
0.0031124
0.00311257
0.00311269
0.00311277
0.00311284
0.00311287
0.00302177
0.0030218
0.00302183
0.00302189
0.00302195
0.00302204
0.00302214
0.00302223
0.00302233
0.00302242
0.00302251
0.00302257
0.00302261
0.00302263
0.0030226
0.0030225
0.00302234
0.00302211
0.00302182
0.0030214
0.00302079
0.00302001
0.00301961
0.00306236
0.00305923
0.00305799
0.00305639
0.00305483
0.0030534
0.00305212
0.00305133
0.00305083
0.00305063
0.00305074
0.00305113
0.00305167
0.00305406
0.0030105
0.00301117
0.00301221
0.00301327
0.00301429
0.00301523
0.00301607
0.00301686
0.00301763
0.00301832
0.00301895
0.0030195
0.00301999
0.00302042
0.00302078
0.0030211
0.00302137
0.00302158
0.00302176
0.00302188
0.00302197
0.00302204
0.00302207
0.00293567
0.0029357
0.00293574
0.00293579
0.00293587
0.00293597
0.00293608
0.0029362
0.00293631
0.00293643
0.00293655
0.00293664
0.00293672
0.00293678
0.00293679
0.00293675
0.00293664
0.00293646
0.00293621
0.00293586
0.00293533
0.00293464
0.00293471
0.00297309
0.00297012
0.00299036
0.0029886
0.00298685
0.00298526
0.00298384
0.00298295
0.00298236
0.00298212
0.00298221
0.00298259
0.00296147
0.0029635
0.0029242
0.00292476
0.00292587
0.00292701
0.00292808
0.00292906
0.00292998
0.00293086
0.00293167
0.0029324
0.00293305
0.00293363
0.00293413
0.00293457
0.00293494
0.00293526
0.00293554
0.00293576
0.00293593
0.00293606
0.00293615
0.00293621
0.00293625
0.00285412
0.00285415
0.0028542
0.00285426
0.00285435
0.00285446
0.00285459
0.00285472
0.00285486
0.00285501
0.00285515
0.00285528
0.00285541
0.00285551
0.00285559
0.00285561
0.00285557
0.00285546
0.00285527
0.00285501
0.00285463
0.00285416
0.00285476
0.00288915
0.00288641
0.00290468
0.00290273
0.00290081
0.00289908
0.00289761
0.00289657
0.00289584
0.00289543
0.00289532
0.0028954
0.00287651
0.00287804
0.00284271
0.00284312
0.00284425
0.00284542
0.00284653
0.00284759
0.00284858
0.00284952
0.00285036
0.00285112
0.00285179
0.00285237
0.00285289
0.00285333
0.00285371
0.00285403
0.0028543
0.00285452
0.0028547
0.00285483
0.00285491
0.00285498
0.00285502
0.00277678
0.00277682
0.00277687
0.00277694
0.00277703
0.00277716
0.0027773
0.00277745
0.00277762
0.00277779
0.00277797
0.00277814
0.00277832
0.00277848
0.00277862
0.00277872
0.00277878
0.00277878
0.00277871
0.00277857
0.00277838
0.00277828
0.00277954
0.00281039
0.00280809
0.00282482
0.00282272
0.00282109
0.00281965
0.00281835
0.00281718
0.002816
0.00281494
0.00281415
0.00281372
0.00279612
0.00279759
0.00276571
0.00276594
0.00276703
0.00276821
0.00276937
0.00277049
0.00277154
0.0027725
0.00277336
0.00277413
0.00277481
0.0027754
0.00277591
0.00277636
0.00277674
0.00277705
0.00277733
0.00277755
0.00277772
0.00277784
0.00277793
0.00277799
0.00277803
0.00270334
0.00270338
0.00270344
0.00270352
0.00270362
0.00270375
0.00270391
0.00270408
0.00270427
0.00270448
0.00270469
0.00270491
0.00270514
0.00270536
0.00270558
0.00270578
0.00270595
0.0027061
0.0027062
0.00270628
0.00270637
0.00270681
0.00270884
0.00273666
0.00273556
0.0027514
0.00274934
0.00274978
0.0027504
0.00275041
0.00274887
0.00274588
0.00274249
0.00273968
0.00273796
0.0027204
0.00272212
0.00269293
0.00269291
0.00269393
0.00269512
0.00269632
0.00269747
0.00269853
0.0026995
0.00270036
0.00270113
0.00270181
0.0027024
0.0027029
0.00270334
0.00270371
0.00270403
0.00270429
0.0027045
0.00270467
0.00270479
0.00270487
0.00270494
0.00270498
0.00263352
0.00263356
0.00263361
0.0026337
0.00263381
0.00263396
0.00263413
0.00263432
0.00263454
0.00263477
0.00263502
0.00263528
0.00263557
0.00263586
0.00263617
0.00263647
0.00263679
0.00263711
0.00263746
0.00263786
0.00263839
0.00263961
0.0026425
0.00266795
0.00266956
0.00268497
0.0026856
0.00269335
0.00270366
0.00271059
0.00270723
0.00269569
0.00268338
0.00267459
0.00266929
0.0026494
0.00265153
0.00262421
0.00262389
0.00262483
0.00262594
0.00262711
0.00262824
0.00262928
0.00263024
0.00263109
0.00263184
0.0026325
0.00263308
0.00263357
0.002634
0.00263436
0.00263466
0.00263491
0.00263511
0.00263527
0.00263539
0.00263547
0.00263553
0.00263557
0.00256705
0.00256709
0.00256715
0.00256724
0.00256736
0.00256752
0.00256771
0.00256792
0.00256815
0.00256841
0.0025687
0.00256901
0.00256935
0.00256972
0.00257011
0.00257054
0.00257101
0.00257154
0.00257219
0.00257302
0.00257419
0.00257651
0.00258037
0.00260427
0.0026111
0.00262728
0.00263855
0.00267415
0.00273416
0.00278464
0.00276685
0.0027043
0.00265308
0.00262448
0.00261006
0.00258405
0.00258572
0.0025594
0.00255866
0.00255946
0.00256041
0.00256149
0.00256255
0.00256354
0.00256446
0.00256528
0.002566
0.00256664
0.00256719
0.00256766
0.00256807
0.00256841
0.00256869
0.00256893
0.00256912
0.00256927
0.00256937
0.00256945
0.0025695
0.00256954
0.0025037
0.00250374
0.0025038
0.0025039
0.00250403
0.0025042
0.0025044
0.00250462
0.00250488
0.00250517
0.00250549
0.00250584
0.00250624
0.00250668
0.00250717
0.00250772
0.00250836
0.00250914
0.00251013
0.00251149
0.00251348
0.00251728
0.0025223
0.00254589
0.00256102
0.00258075
0.0026276
0.00276833
0.00293765
0.003056
0.0030114
0.00285943
0.00269583
0.00259984
0.00256332
0.00252593
0.0025245
0.00249854
0.002497
0.00249757
0.00249828
0.00249921
0.00250017
0.00250109
0.00250193
0.0025027
0.00250338
0.00250398
0.00250449
0.00250493
0.00250531
0.00250562
0.00250589
0.00250611
0.00250628
0.00250642
0.00250651
0.00250658
0.00250663
0.00250667
0.00244326
0.0024433
0.00244337
0.00244347
0.00244361
0.00244378
0.00244399
0.00244423
0.00244451
0.00244482
0.00244517
0.00244557
0.00244601
0.00244652
0.00244711
0.00244779
0.00244861
0.00244964
0.00245102
0.00245299
0.00245597
0.00246152
0.00246775
0.00249278
0.00251991
0.00254855
0.00269307
0.00297726
0.00338205
0.00421025
0.00396038
0.0032363
0.00283856
0.00261371
0.00253013
0.0024773
0.00246776
0.00244141
0.00243867
0.0024389
0.00243932
0.00244006
0.00244087
0.00244168
0.00244244
0.00244313
0.00244375
0.0024443
0.00244477
0.00244517
0.00244551
0.00244579
0.00244603
0.00244623
0.00244639
0.00244651
0.00244659
0.00244665
0.00244669
0.00244673
0.00238553
0.00238558
0.00238565
0.00238575
0.00238589
0.00238608
0.00238629
0.00238654
0.00238684
0.00238717
0.00238755
0.00238798
0.00238847
0.00238905
0.00238972
0.00239052
0.00239152
0.00239282
0.00239461
0.00239723
0.00240133
0.00240877
0.00241612
0.00244415
0.00248697
0.00252907
0.00284243
0.00329608
0.00488656
0.00483636
0.00304183
0.00266178
0.00250645
0.00243824
0.0024151
0.00238786
0.00238343
0.00238321
0.00238331
0.00238381
0.00238444
0.0023851
0.00238575
0.00238636
0.0023869
0.00238738
0.00238779
0.00238815
0.00238845
0.0023887
0.00238891
0.00238908
0.00238922
0.00238933
0.0023894
0.00238945
0.00238949
0.00238953
0.00233034
0.00233039
0.00233046
0.00233057
0.00233071
0.0023309
0.00233113
0.00233139
0.00233169
0.00233204
0.00233244
0.0023329
0.00233344
0.00233407
0.00233481
0.00233573
0.00233689
0.00233844
0.00234063
0.00234391
0.00234922
0.00235846
0.00236721
0.00239916
0.00246024
0.00251059
0.0030152
0.00362157
0.00632367
0.0169706
0.0371854
0.00327637
0.00270675
0.00248263
0.00240582
0.0023664
0.00233782
0.00233124
0.00233038
0.00233012
0.00233033
0.00233074
0.00233124
0.00233175
0.00233224
0.00233269
0.0023331
0.00233344
0.00233374
0.002334
0.0023342
0.00233438
0.00233452
0.00233463
0.00233472
0.00233478
0.00233482
0.00233485
0.00233488
0.00227753
0.00227758
0.00227765
0.00227776
0.00227791
0.0022781
0.00227833
0.00227859
0.00227891
0.00227927
0.00227969
0.00228017
0.00228073
0.0022814
0.00228221
0.00228322
0.00228453
0.0022863
0.00228886
0.00229274
0.00229924
0.00231013
0.0023211
0.0023574
0.00243801
0.00249073
0.00319239
0.00393003
0.00615399
0.0716501
0.0568071
0.13732
0.00372366
0.00272084
0.00245246
0.00237621
0.00232166
0.00229119
0.00228196
0.0022802
0.00227953
0.00227943
0.00227959
0.00227989
0.00228024
0.0022806
0.00228094
0.00228125
0.00228153
0.00228176
0.00228196
0.00228212
0.00228225
0.00228236
0.00228245
0.00228251
0.00228255
0.00228258
0.0022826
0.00228263
0.00222695
0.002227
0.00222707
0.00222718
0.00222733
0.00222751
0.00222775
0.00222802
0.00222833
0.0022287
0.00222913
0.00222962
0.00223021
0.00223091
0.00223176
0.00223284
0.00223425
0.00223619
0.00223906
0.00224344
0.00225102
0.00226348
0.00227809
0.00231894
0.00241963
0.00248654
0.00330657
0.00419398
0.00554589
0.0315961
0.0524303
0.142487
0.00371518
0.00273104
0.00242421
0.00234964
0.0022815
0.00224815
0.00223557
0.0022325
0.00223137
0.0022309
0.00223079
0.00223086
0.00223104
0.00223126
0.00223148
0.00223169
0.00223188
0.00223204
0.00223218
0.00223229
0.00223238
0.00223245
0.00223251
0.00223255
0.00223257
0.00223258
0.00223259
0.00223262
0.00217846
0.0021785
0.00217858
0.00217868
0.00217883
0.00217902
0.00217925
0.00217952
0.00217983
0.0021802
0.00218063
0.00218113
0.00218173
0.00218244
0.00218332
0.00218442
0.00218588
0.00218792
0.00219101
0.00219583
0.00220434
0.00221844
0.0022386
0.00228496
0.00240376
0.00252243
0.00335706
0.004352
0.0054483
0.0142936
0.0240827
0.053137
0.00872334
0.00285687
0.00242072
0.0023321
0.00224748
0.00220902
0.00219208
0.00218716
0.00218545
0.0021846
0.00218418
0.00218401
0.002184
0.00218406
0.00218415
0.00218425
0.00218435
0.00218444
0.00218451
0.00218456
0.00218461
0.00218464
0.00218467
0.00218468
0.00218468
0.00218468
0.00218468
0.0021847
0.00213193
0.00213198
0.00213205
0.00213215
0.0021323
0.00213248
0.00213271
0.00213297
0.00213329
0.00213365
0.00213408
0.00213457
0.00213516
0.00213586
0.00213673
0.00213781
0.00213929
0.00214143
0.00214469
0.00214987
0.002159
0.00217491
0.00220261
0.00225713
0.00239041
0.00260818
0.00336956
0.00449657
0.00549388
0.00796822
0.0141438
0.0181059
0.0284333
0.00359771
0.00246048
0.00232728
0.00222112
0.00217395
0.0021515
0.00214403
0.00214162
0.00214032
0.00213959
0.00213918
0.00213896
0.00213886
0.00213882
0.0021388
0.00213881
0.00213881
0.00213882
0.00213882
0.00213881
0.00213881
0.0021388
0.00213878
0.00213877
0.00213875
0.00213874
0.00213875
0.00208726
0.0020873
0.00208737
0.00208747
0.00208761
0.00208779
0.00208801
0.00208827
0.00208858
0.00208893
0.00208935
0.00208983
0.00209039
0.00209104
0.00209187
0.00209297
0.00209448
0.00209668
0.00210001
0.00210545
0.00211483
0.00213268
0.0021695
0.00223682
0.00238407
0.00273341
0.00348298
0.00529822
0.00701328
0.00701917
0.00877992
0.0127814
0.0253356
0.00550782
0.00253189
0.00232665
0.00220212
0.00214238
0.00211359
0.00210292
0.00209966
0.0020979
0.00209685
0.0020962
0.0020958
0.00209553
0.00209535
0.00209522
0.00209513
0.00209505
0.00209498
0.00209492
0.00209487
0.00209482
0.00209478
0.00209474
0.0020947
0.00209467
0.00209465
0.00209466
0.00204433
0.00204437
0.00204443
0.00204454
0.00204467
0.00204484
0.00204506
0.0020453
0.0020456
0.00204594
0.00204633
0.00204678
0.0020473
0.00204793
0.00204876
0.00204986
0.00205135
0.00205354
0.00205684
0.00206246
0.00207181
0.00209141
0.00213786
0.0022232
0.00239866
0.00288126
0.00496896
0.0110121
0.0120436
0.0093308
0.007975
0.0113628
0.0144647
0.00657318
0.00261433
0.00231613
0.00218599
0.00211313
0.00207798
0.00206365
0.00205948
0.00205726
0.00205588
0.00205495
0.00205436
0.00205393
0.00205362
0.00205338
0.00205319
0.00205303
0.00205289
0.00205277
0.00205267
0.00205258
0.0020525
0.00205243
0.00205237
0.00205232
0.0020523
0.00205229
0.00200304
0.00200308
0.00200315
0.00200324
0.00200337
0.00200354
0.00200374
0.00200398
0.00200426
0.00200457
0.00200491
0.00200532
0.00200584
0.00200647
0.00200728
0.00200834
0.00200978
0.00201193
0.00201515
0.00202084
0.00202999
0.00205078
0.00210569
0.00220931
0.00241782
0.00361532
0.0375034
0.0433491
0.0361066
0.0192246
0.00927463
0.0103158
0.0144648
0.00631831
0.00267485
0.00228968
0.00216891
0.00208468
0.00204395
0.00202605
0.00202087
0.00201819
0.00201654
0.00201533
0.00201452
0.00201393
0.00201351
0.00201317
0.00201288
0.00201264
0.00201243
0.00201225
0.0020121
0.00201197
0.00201185
0.00201176
0.00201168
0.00201161
0.00201158
0.00201157
0.00196332
0.00196335
0.00196341
0.0019635
0.00196362
0.00196378
0.00196397
0.0019642
0.00196445
0.00196472
0.00196505
0.00196545
0.00196595
0.00196656
0.00196733
0.00196834
0.00196971
0.00197179
0.00197489
0.00198053
0.00198947
0.00201074
0.00207132
0.00219137
0.00257003
0.0138481
0.101767
0.0461233
0.0299403
0.0137785
0.00888172
0.0112401
0.0177107
0.00563281
0.00271679
0.00225484
0.00214871
0.00205585
0.00201087
0.00198978
0.00198373
0.00198056
0.00197866
0.00197724
0.00197623
0.00197547
0.00197491
0.00197448
0.00197411
0.00197379
0.00197351
0.00197328
0.00197307
0.0019729
0.00197275
0.00197263
0.00197252
0.00197245
0.0019724
0.00197238
0.00192507
0.0019251
0.00192515
0.00192524
0.00192535
0.0019255
0.00192567
0.00192587
0.00192609
0.00192635
0.00192668
0.00192706
0.00192753
0.00192811
0.00192883
0.00192979
0.00193108
0.00193308
0.00193603
0.00194152
0.00195037
0.00197165
0.00203561
0.00217087
0.00415099
0.0374848
0.126176
0.0342119
0.0189463
0.0105508
0.00987653
0.0166725
0.0170921
0.00489347
0.00276896
0.00222604
0.00212524
0.00202599
0.0019783
0.00195461
0.00194787
0.00194431
0.00194214
0.00194051
0.00193934
0.00193844
0.00193775
0.00193721
0.00193676
0.00193638
0.00193604
0.00193575
0.00193549
0.00193528
0.0019351
0.00193495
0.00193482
0.00193473
0.00193467
0.00193465
0.00188821
0.00188824
0.00188829
0.00188837
0.00188847
0.0018886
0.00188875
0.00188892
0.00188914
0.00188939
0.0018897
0.00189006
0.0018905
0.00189104
0.00189171
0.00189261
0.00189383
0.00189574
0.00189855
0.00190386
0.00191266
0.00193373
0.00199955
0.00216154
0.00780298
0.0575601
0.127346
0.025012
0.0129432
0.0096819
0.0126119
0.0198874
0.0141318
0.00420368
0.00281356
0.00221298
0.00209928
0.00199491
0.00194596
0.00192043
0.00191315
0.00190931
0.00190694
0.00190508
0.00190375
0.0019027
0.00190193
0.00190129
0.00190076
0.00190032
0.00189992
0.00189958
0.00189928
0.00189903
0.00189882
0.00189864
0.0018985
0.00189839
0.00189832
0.00189829