/*--------------------------------*- C++ -*----------------------------------*\
  =========                 |
  \\      /  F ield         | OpenFOAM: The Open Source CFD Toolbox
   \\    /   O peration     | Website:  https://openfoam.org
    \\  /    A nd           | Version:  12
     \\/     M anipulation  |
\*---------------------------------------------------------------------------*/
FoamFile
{
    format      ascii;
    class       volScalarField;
    location    "240";
    object      nut;
}
// * * * * * * * * * * * * * * * * * * * * * * * * * * * * * * * * * * * * * //

dimensions      [0 2 -1 0 0 0 0];

internalField   nonuniform List<scalar> 
16227
(
0.000978543
0.000978543
0.000978543
0.000978543
0.000978543
0.000978543
0.000978543
0.000978543
0.000978543
0.000978543
0.000978543
0.000978543
0.000978544
0.000978544
0.000978544
0.000978544
0.000978544
0.000978544
0.000978544
0.000978544
0.000978544
0.000978544
0.000978544
0.000978544
0.000978544
0.000978544
0.000978544
0.000978544
0.000978544
0.000978544
0.000978544
0.000978544
0.000978544
0.000978544
0.000978544
0.000978544
0.000978544
0.000978544
0.000978544
0.000978544
0.000978544
0.000978544
0.000978544
0.000978544
0.000978544
0.000978544
0.000978544
0.000978544
0.000978544
0.000978544
0.000978544
0.000978543
0.000978543
0.000978543
0.000978543
0.000978543
0.000978543
0.000978543
0.000978543
0.000978543
0.000972834
0.000972834
0.000972834
0.000972834
0.000972834
0.000972834
0.000972834
0.000972834
0.000972834
0.000972834
0.000972835
0.000972835
0.000972836
0.000972837
0.000972837
0.000972837
0.000972837
0.000972837
0.000972837
0.000972837
0.000972837
0.000972837
0.000972837
0.000972837
0.000972837
0.000972837
0.000972837
0.000972837
0.000972837
0.000972836
0.000972837
0.000972837
0.000972837
0.000972837
0.000972837
0.000972837
0.000972836
0.000972836
0.000972836
0.000972836
0.000972836
0.000972836
0.000972836
0.000972836
0.000972836
0.000972836
0.000972836
0.000972836
0.000972836
0.000972836
0.000972836
0.000972836
0.000972835
0.000972835
0.000972834
0.000972834
0.000972835
0.000972834
0.000972834
0.000972834
0.000967494
0.000967494
0.000967494
0.000967494
0.000967494
0.000967495
0.000967495
0.000967495
0.000967495
0.000967495
0.000967495
0.000967495
0.000967497
0.000967498
0.000967498
0.000967498
0.000967498
0.000967498
0.000967498
0.000967498
0.000967498
0.000967498
0.000967498
0.000967498
0.000967498
0.000967498
0.000967498
0.000967498
0.000967498
0.000967497
0.000967498
0.000967498
0.000967498
0.000967498
0.000967498
0.000967498
0.000967498
0.000967498
0.000967498
0.000967498
0.000967498
0.000967498
0.000967498
0.000967498
0.000967498
0.000967498
0.000967498
0.000967498
0.000967498
0.000967497
0.000967497
0.000967495
0.000967495
0.000967495
0.000967495
0.000967495
0.000967495
0.000967494
0.000967494
0.000967494
0.000962481
0.000962481
0.000962481
0.000962481
0.000962482
0.000962482
0.000962482
0.000962482
0.000962482
0.000962482
0.000962482
0.000962483
0.000962485
0.000962486
0.000962486
0.000962487
0.000962487
0.000962487
0.000962486
0.000962485
0.000962486
0.000962486
0.000962486
0.000962486
0.000962486
0.000962486
0.000962486
0.000962486
0.000962486
0.000962485
0.000962485
0.000962485
0.000962485
0.000962485
0.000962485
0.000962485
0.000962485
0.000962485
0.000962485
0.000962485
0.000962485
0.000962485
0.000962485
0.000962485
0.000962485
0.000962485
0.000962485
0.000962485
0.000962486
0.000962485
0.000962484
0.000962482
0.000962482
0.000962482
0.000962482
0.000962482
0.000962482
0.000962481
0.000962481
0.000962481
0.00095776
0.00095776
0.00095776
0.00095776
0.00095776
0.000957761
0.000957761
0.000957761
0.000957761
0.000957761
0.000957761
0.000957762
0.000957764
0.000957766
0.000957766
0.000957766
0.000957766
0.000957766
0.000957764
0.000957763
0.000957765
0.000957766
0.000957766
0.000957765
0.000957765
0.000957765
0.000957765
0.000957765
0.000957764
0.000957763
0.000957764
0.000957764
0.000957764
0.000957764
0.000957764
0.000957764
0.000957764
0.000957764
0.000957764
0.000957764
0.000957764
0.000957764
0.000957764
0.000957764
0.000957764
0.000957765
0.000957765
0.000957765
0.000957765
0.000957764
0.000957762
0.000957761
0.00095776
0.00095776
0.000957761
0.000957761
0.000957761
0.00095776
0.00095776
0.00095776
0.0009533
0.0009533
0.0009533
0.0009533
0.0009533
0.000953301
0.000953301
0.000953301
0.000953301
0.000953301
0.000953301
0.000953301
0.000953303
0.000953306
0.000953307
0.000953307
0.000953307
0.000953306
0.000953303
0.000953303
0.000953305
0.000953306
0.000953306
0.000953305
0.000953305
0.000953305
0.000953304
0.000953304
0.000953303
0.000953302
0.000953303
0.000953303
0.000953303
0.000953303
0.000953303
0.000953303
0.000953303
0.000953303
0.000953304
0.000953304
0.000953304
0.000953304
0.000953304
0.000953305
0.000953305
0.000953305
0.000953305
0.000953305
0.000953305
0.000953304
0.000953301
0.0009533
0.0009533
0.000953301
0.000953301
0.000953301
0.000953301
0.0009533
0.0009533
0.0009533
0.000949076
0.000949076
0.000949076
0.000949076
0.000949076
0.000949076
0.000949077
0.000949077
0.000949077
0.000949077
0.000949076
0.000949077
0.000949078
0.000949081
0.000949083
0.000949083
0.000949083
0.000949079
0.000949078
0.000949078
0.000949081
0.000949081
0.000949081
0.00094908
0.00094908
0.000949079
0.000949079
0.000949078
0.000949078
0.000949076
0.000949077
0.000949077
0.000949077
0.000949077
0.000949077
0.000949077
0.000949078
0.000949078
0.000949078
0.000949079
0.000949079
0.000949079
0.00094908
0.00094908
0.000949081
0.000949081
0.000949081
0.000949082
0.000949081
0.000949078
0.000949077
0.000949076
0.000949076
0.000949077
0.000949078
0.000949078
0.000949077
0.000949077
0.000949077
0.000949077
0.000945065
0.000945065
0.000945065
0.000945065
0.000945065
0.000945065
0.000945066
0.000945066
0.000945066
0.000945066
0.000945065
0.000945065
0.000945066
0.000945067
0.000945071
0.000945072
0.000945072
0.000945068
0.000945066
0.000945066
0.000945069
0.00094507
0.000945069
0.000945068
0.000945068
0.000945067
0.000945066
0.000945066
0.000945065
0.000945063
0.000945064
0.000945064
0.000945064
0.000945064
0.000945064
0.000945065
0.000945065
0.000945065
0.000945066
0.000945066
0.000945067
0.000945068
0.000945068
0.000945069
0.00094507
0.00094507
0.000945071
0.000945071
0.00094507
0.000945067
0.000945066
0.000945065
0.000945067
0.000945067
0.000945067
0.000945067
0.000945067
0.000945067
0.000945067
0.000945067
0.000941248
0.000941248
0.000941248
0.000941248
0.000941248
0.000941248
0.000941249
0.000941249
0.000941249
0.000941249
0.000941248
0.000941248
0.000941248
0.00094125
0.000941254
0.000941256
0.000941254
0.00094125
0.000941249
0.000941249
0.000941251
0.000941252
0.000941251
0.00094125
0.000941249
0.000941248
0.000941247
0.000941246
0.000941245
0.000941243
0.000941244
0.000941244
0.000941244
0.000941244
0.000941245
0.000941245
0.000941246
0.000941246
0.000941247
0.000941248
0.000941249
0.00094125
0.000941251
0.000941252
0.000941252
0.000941253
0.000941254
0.000941254
0.000941251
0.000941249
0.000941249
0.00094125
0.000941251
0.000941251
0.000941252
0.000941252
0.000941252
0.000941251
0.000941251
0.000941251
0.000937608
0.000937608
0.000937608
0.000937608
0.000937608
0.000937609
0.000937609
0.000937609
0.000937609
0.000937609
0.000937609
0.000937608
0.000937608
0.00093761
0.000937614
0.000937615
0.000937612
0.000937609
0.000937608
0.000937608
0.00093761
0.00093761
0.000937609
0.000937608
0.000937607
0.000937606
0.000937604
0.000937603
0.000937602
0.0009376
0.000937601
0.000937601
0.000937601
0.000937601
0.000937601
0.000937602
0.000937603
0.000937604
0.000937605
0.000937606
0.000937607
0.000937609
0.00093761
0.000937611
0.000937613
0.000937614
0.000937615
0.000937614
0.000937611
0.00093761
0.00093761
0.000937611
0.000937612
0.000937613
0.000937613
0.000937614
0.000937614
0.000937613
0.000937614
0.000937614
0.000934131
0.000934131
0.000934131
0.000934131
0.000934131
0.000934131
0.000934132
0.000934132
0.000934132
0.000934132
0.000934132
0.000934131
0.00093413
0.000934131
0.000934133
0.000934136
0.000934133
0.000934131
0.00093413
0.000934129
0.000934131
0.000934131
0.00093413
0.000934128
0.000934126
0.000934125
0.000934123
0.000934122
0.00093412
0.000934118
0.000934119
0.000934119
0.000934119
0.000934119
0.00093412
0.000934121
0.000934122
0.000934123
0.000934125
0.000934126
0.000934128
0.00093413
0.000934132
0.000934133
0.000934135
0.000934136
0.000934137
0.000934135
0.000934134
0.000934134
0.000934134
0.000934135
0.000934137
0.000934138
0.000934138
0.000934139
0.000934139
0.000934139
0.000934139
0.000934139
0.000930803
0.000930803
0.000930803
0.000930803
0.000930803
0.000930804
0.000930804
0.000930804
0.000930804
0.000930804
0.000930804
0.000930803
0.000930802
0.000930802
0.000930804
0.000930807
0.000930804
0.000930802
0.0009308
0.000930799
0.000930799
0.0009308
0.000930799
0.000930797
0.000930795
0.000930793
0.000930791
0.000930789
0.000930787
0.000930785
0.000930785
0.000930785
0.000930786
0.000930786
0.000930787
0.000930788
0.00093079
0.000930791
0.000930793
0.000930796
0.000930798
0.0009308
0.000930802
0.000930805
0.000930807
0.000930808
0.000930807
0.000930807
0.000930807
0.000930807
0.000930808
0.00093081
0.000930811
0.000930812
0.000930813
0.000930814
0.000930814
0.000930814
0.000930814
0.000930814
0.000927613
0.000927613
0.000927613
0.000927613
0.000927613
0.000927613
0.000927614
0.000927614
0.000927614
0.000927614
0.000927614
0.000927613
0.000927612
0.000927611
0.000927611
0.000927612
0.000927612
0.000927611
0.000927609
0.000927607
0.000927605
0.000927607
0.000927606
0.000927603
0.000927601
0.000927598
0.000927596
0.000927593
0.000927591
0.000927588
0.000927589
0.000927589
0.000927589
0.00092759
0.000927591
0.000927593
0.000927595
0.000927597
0.0009276
0.000927602
0.000927605
0.000927608
0.000927611
0.000927614
0.000927616
0.000927617
0.000927617
0.000927618
0.000927618
0.000927619
0.00092762
0.000927622
0.000927624
0.000927625
0.000927626
0.000927627
0.000927627
0.000927627
0.000927628
0.000927628
0.00092455
0.00092455
0.00092455
0.00092455
0.00092455
0.00092455
0.000924551
0.000924551
0.000924551
0.000924551
0.000924551
0.00092455
0.000924549
0.000924548
0.000924547
0.000924547
0.000924548
0.000924547
0.000924545
0.000924543
0.00092454
0.000924542
0.00092454
0.000924537
0.000924533
0.00092453
0.000924527
0.000924525
0.000924522
0.000924519
0.000924519
0.000924519
0.00092452
0.000924521
0.000924522
0.000924524
0.000924527
0.00092453
0.000924533
0.000924536
0.00092454
0.000924544
0.000924547
0.00092455
0.000924552
0.000924553
0.000924555
0.000924557
0.000924557
0.000924559
0.000924561
0.000924563
0.000924565
0.000924566
0.000924567
0.000924568
0.000924569
0.000924569
0.000924569
0.00092457
0.000921605
0.000921605
0.000921605
0.000921605
0.000921606
0.000921606
0.000921606
0.000921607
0.000921607
0.000921607
0.000921606
0.000921605
0.000921605
0.000921604
0.000921603
0.000921603
0.000921603
0.000921601
0.000921599
0.000921596
0.000921594
0.000921594
0.000921592
0.000921588
0.000921584
0.00092158
0.000921577
0.000921573
0.00092157
0.000921567
0.000921567
0.000921567
0.000921568
0.000921569
0.000921571
0.000921573
0.000921576
0.00092158
0.000921584
0.000921589
0.000921593
0.000921597
0.000921602
0.000921605
0.000921606
0.000921609
0.000921611
0.000921614
0.000921615
0.000921617
0.00092162
0.000921622
0.000921624
0.000921626
0.000921628
0.000921629
0.000921629
0.00092163
0.00092163
0.00092163
0.00091877
0.00091877
0.00091877
0.00091877
0.000918771
0.000918771
0.000918772
0.000918772
0.000918772
0.000918772
0.000918772
0.000918771
0.00091877
0.000918769
0.000918768
0.000918768
0.000918768
0.000918766
0.000918763
0.00091876
0.000918757
0.000918756
0.000918754
0.00091875
0.000918745
0.00091874
0.000918736
0.000918732
0.000918728
0.000918724
0.000918724
0.000918725
0.000918725
0.000918727
0.000918729
0.000918732
0.000918736
0.000918741
0.000918745
0.000918751
0.000918756
0.000918761
0.000918766
0.00091877
0.000918772
0.000918775
0.000918779
0.000918781
0.000918784
0.000918786
0.00091879
0.000918792
0.000918795
0.000918797
0.000918799
0.0009188
0.000918801
0.000918801
0.000918802
0.000918802
0.000916038
0.000916038
0.000916038
0.000916038
0.000916038
0.000916039
0.00091604
0.00091604
0.00091604
0.00091604
0.00091604
0.000916039
0.000916038
0.000916037
0.000916036
0.000916036
0.000916036
0.000916034
0.000916031
0.000916027
0.000916023
0.000916019
0.000916018
0.000916014
0.000916008
0.000916003
0.000915998
0.000915993
0.000915989
0.000915985
0.000915984
0.000915984
0.000915985
0.000915987
0.00091599
0.000915994
0.000915998
0.000916004
0.00091601
0.000916016
0.000916022
0.000916028
0.000916033
0.000916036
0.00091604
0.000916045
0.000916049
0.000916052
0.000916056
0.000916059
0.000916063
0.000916066
0.000916069
0.000916071
0.000916073
0.000916075
0.000916076
0.000916076
0.000916077
0.000916077
0.000913401
0.000913401
0.000913401
0.000913401
0.000913402
0.000913402
0.000913403
0.000913404
0.000913404
0.000913404
0.000913404
0.000913403
0.000913403
0.000913402
0.000913401
0.0009134
0.0009134
0.000913398
0.000913394
0.00091339
0.000913385
0.000913381
0.000913379
0.000913375
0.000913368
0.000913362
0.000913356
0.000913351
0.000913346
0.000913341
0.000913341
0.000913341
0.000913342
0.000913344
0.000913347
0.000913352
0.000913357
0.000913363
0.00091337
0.000913377
0.000913384
0.000913391
0.000913394
0.0009134
0.000913406
0.000913412
0.000913417
0.000913421
0.000913425
0.000913429
0.000913433
0.000913437
0.00091344
0.000913442
0.000913445
0.000913446
0.000913447
0.000913448
0.000913449
0.000913449
0.000910853
0.000910854
0.000910854
0.000910854
0.000910855
0.000910855
0.000910856
0.000910857
0.000910857
0.000910858
0.000910858
0.000910857
0.000910857
0.000910856
0.000910855
0.000910855
0.000910855
0.000910852
0.000910849
0.000910844
0.000910839
0.000910834
0.000910831
0.000910827
0.00091082
0.000910813
0.000910806
0.0009108
0.000910795
0.000910789
0.000910789
0.000910788
0.000910789
0.000910791
0.000910795
0.0009108
0.000910807
0.000910814
0.000910821
0.000910829
0.000910837
0.000910844
0.000910849
0.000910856
0.000910863
0.000910869
0.000910875
0.000910879
0.000910885
0.00091089
0.000910894
0.000910898
0.000910902
0.000910905
0.000910907
0.000910909
0.00091091
0.000910911
0.000910911
0.000910912
0.00090839
0.00090839
0.000908391
0.000908391
0.000908392
0.000908392
0.000908393
0.000908394
0.000908395
0.000908396
0.000908396
0.000908396
0.000908395
0.000908395
0.000908394
0.000908394
0.000908394
0.000908392
0.000908388
0.000908384
0.000908378
0.000908373
0.000908368
0.000908365
0.000908359
0.000908351
0.000908344
0.000908338
0.000908332
0.000908326
0.000908324
0.000908324
0.000908324
0.000908326
0.00090833
0.000908336
0.000908343
0.00090835
0.000908358
0.000908366
0.000908375
0.000908382
0.000908389
0.000908398
0.000908406
0.000908413
0.000908419
0.000908424
0.00090843
0.000908436
0.000908441
0.000908445
0.000908449
0.000908452
0.000908455
0.000908457
0.000908458
0.000908459
0.00090846
0.00090846
0.000906005
0.000906006
0.000906006
0.000906007
0.000906007
0.000906008
0.00090601
0.000906011
0.000906012
0.000906012
0.000906013
0.000906014
0.000906014
0.000906013
0.000906013
0.000906012
0.000906012
0.000906012
0.000906009
0.000906005
0.000906
0.000905995
0.00090599
0.000905988
0.000905983
0.000905975
0.000905968
0.000905961
0.000905955
0.000905948
0.000905946
0.000905944
0.000905944
0.000905945
0.000905949
0.000905954
0.000905962
0.000905969
0.000905978
0.000905986
0.000905993
0.000906002
0.000906011
0.000906021
0.00090603
0.000906037
0.000906043
0.00090605
0.000906057
0.000906063
0.000906068
0.000906072
0.000906077
0.00090608
0.000906083
0.000906085
0.000906086
0.000906087
0.000906088
0.000906089
0.000903695
0.000903695
0.000903696
0.000903696
0.000903697
0.000903698
0.0009037
0.000903701
0.000903703
0.000903704
0.000903705
0.000903706
0.000903707
0.000903707
0.000903707
0.000903707
0.000903708
0.000903709
0.000903707
0.000903704
0.0009037
0.000903697
0.000903693
0.000903694
0.000903692
0.000903686
0.000903679
0.000903673
0.000903666
0.000903659
0.000903655
0.000903652
0.000903649
0.000903648
0.00090365
0.000903655
0.000903661
0.000903668
0.000903676
0.000903685
0.000903692
0.000903702
0.000903712
0.000903722
0.00090373
0.000903738
0.000903745
0.000903753
0.00090376
0.000903766
0.000903771
0.000903776
0.000903781
0.000903784
0.000903787
0.000903789
0.00090379
0.000903792
0.000903792
0.000903793
0.000901454
0.000901455
0.000901455
0.000901456
0.000901457
0.000901459
0.00090146
0.000901462
0.000901464
0.000901466
0.000901467
0.000901469
0.000901471
0.000901472
0.000901473
0.000901474
0.000901476
0.000901478
0.000901478
0.000901478
0.000901477
0.000901476
0.000901478
0.000901483
0.000901488
0.000901485
0.000901481
0.000901477
0.000901472
0.000901464
0.000901459
0.000901453
0.000901446
0.000901442
0.00090144
0.000901442
0.000901441
0.000901447
0.000901451
0.000901458
0.000901467
0.000901476
0.000901486
0.000901496
0.000901504
0.000901512
0.00090152
0.000901528
0.000901535
0.000901542
0.000901547
0.000901552
0.000901556
0.00090156
0.000901563
0.000901565
0.000901566
0.000901568
0.000901568
0.000901569
0.00089928
0.00089928
0.000899281
0.000899282
0.000899283
0.000899285
0.000899287
0.000899289
0.000899291
0.000899294
0.000899296
0.000899299
0.000899301
0.000899304
0.000899306
0.000899309
0.000899312
0.000899315
0.000899319
0.000899323
0.000899327
0.000899333
0.000899345
0.000899372
0.000900385
0.000900388
0.000900386
0.000900384
0.00090038
0.000900373
0.000900368
0.00090036
0.000900351
0.000900344
0.000900339
0.000900336
0.000899316
0.000899306
0.000899307
0.00089931
0.000899316
0.000899324
0.000899332
0.00089934
0.000899348
0.000899357
0.000899365
0.000899373
0.00089938
0.000899386
0.000899392
0.000899397
0.000899401
0.000899404
0.000899407
0.000899409
0.000899411
0.000899412
0.000899412
0.000899413
0.000897167
0.000897168
0.000897169
0.00089717
0.000897171
0.000897173
0.000897176
0.000897178
0.000897181
0.000897185
0.000897188
0.000897191
0.000897195
0.000897199
0.000897204
0.000897208
0.000897213
0.00089722
0.000897229
0.000897239
0.000897251
0.000897269
0.00089731
0.000898309
0.000898262
0.000898291
0.000898302
0.000898311
0.000898316
0.000898312
0.000898303
0.000898286
0.000898263
0.000898239
0.000898219
0.000898207
0.00089825
0.000897257
0.000897245
0.000897238
0.000897239
0.000897243
0.000897248
0.000897254
0.000897261
0.000897269
0.000897277
0.000897284
0.000897291
0.000897297
0.000897302
0.000897306
0.00089731
0.000897313
0.000897316
0.000897318
0.000897319
0.00089732
0.000897321
0.000897321
0.000895114
0.000895114
0.000895115
0.000895117
0.000895119
0.000895121
0.000895124
0.000895127
0.000895131
0.000895135
0.000895139
0.000895144
0.000895149
0.000895155
0.000895162
0.00089517
0.000895179
0.00089519
0.000895205
0.000895225
0.00089525
0.000895287
0.000895365
0.000896269
0.000896254
0.000896787
0.00089681
0.000896834
0.000896856
0.000896864
0.000896859
0.000896833
0.000896794
0.000896747
0.000896703
0.000896201
0.000896203
0.00089529
0.000895267
0.000895244
0.000895234
0.000895231
0.000895231
0.000895234
0.000895239
0.000895246
0.000895252
0.000895258
0.000895264
0.000895269
0.000895274
0.000895278
0.000895281
0.000895284
0.000895286
0.000895288
0.000895289
0.00089529
0.00089529
0.000895291
0.000893117
0.000893117
0.000893118
0.00089312
0.000893122
0.000893124
0.000893128
0.000893132
0.000893136
0.000893141
0.000893146
0.000893153
0.00089316
0.000893168
0.000893178
0.00089319
0.000893204
0.000893222
0.000893247
0.00089328
0.000893325
0.000893395
0.000893525
0.000894345
0.000894375
0.000894916
0.000894956
0.000895034
0.000895115
0.000895174
0.000895188
0.000895145
0.000895054
0.000894934
0.00089481
0.000894299
0.000894269
0.000893412
0.000893376
0.000893328
0.000893302
0.000893288
0.000893281
0.000893279
0.000893281
0.000893285
0.000893289
0.000893293
0.000893298
0.000893302
0.000893305
0.000893308
0.000893311
0.000893313
0.000893315
0.000893316
0.000893317
0.000893318
0.000893318
0.000893319
0.000891172
0.000891172
0.000891174
0.000891175
0.000891178
0.000891181
0.000891185
0.000891189
0.000891194
0.0008912
0.000891207
0.000891215
0.000891224
0.000891236
0.000891249
0.000891266
0.000891288
0.000891316
0.000891353
0.000891406
0.000891481
0.000891606
0.000891808
0.000892561
0.000892692
0.000893317
0.000893393
0.000893635
0.000893885
0.000894069
0.000894106
0.000893981
0.000893728
0.000893425
0.000893133
0.000892501
0.000892476
0.000891629
0.000891574
0.000891493
0.000891444
0.000891414
0.000891397
0.000891389
0.000891385
0.000891384
0.000891385
0.000891387
0.000891389
0.000891391
0.000891393
0.000891395
0.000891397
0.000891398
0.0008914
0.0008914
0.000891401
0.000891401
0.000891401
0.000891402
0.000889278
0.000889278
0.00088928
0.000889282
0.000889284
0.000889288
0.000889292
0.000889297
0.000889303
0.00088931
0.000889318
0.000889328
0.00088934
0.000889355
0.000889373
0.000889396
0.000889427
0.000889467
0.000889524
0.000889605
0.000889724
0.000889935
0.000890233
0.000890952
0.000891319
0.000892135
0.000892357
0.000893112
0.000893915
0.000894487
0.000894526
0.000894037
0.000893262
0.000892482
0.000891833
0.000890831
0.000890866
0.000889949
0.000889863
0.000889742
0.000889661
0.000889611
0.000889579
0.00088956
0.000889549
0.000889542
0.000889538
0.000889537
0.000889536
0.000889536
0.000889536
0.000889536
0.000889537
0.000889537
0.000889537
0.000889537
0.000889537
0.000889537
0.000889537
0.000889537
0.000887432
0.000887432
0.000887434
0.000887436
0.000887439
0.000887442
0.000887447
0.000887453
0.00088746
0.000887468
0.000887478
0.00088749
0.000887504
0.000887523
0.000887546
0.000887577
0.000887619
0.000887676
0.000887759
0.000887881
0.000888065
0.000888403
0.000888826
0.000889572
0.000890448
0.000891583
0.000892427
0.000894804
0.000897705
0.000899832
0.000899632
0.000897442
0.000894812
0.00089269
0.00089121
0.00088936
0.000889484
0.000888384
0.000888248
0.000888081
0.000887955
0.000887877
0.000887826
0.000887792
0.00088777
0.000887756
0.000887746
0.00088774
0.000887736
0.000887733
0.00088773
0.000887729
0.000887727
0.000887726
0.000887725
0.000887725
0.000887724
0.000887723
0.000887722
0.000887723
0.000885631
0.000885632
0.000885633
0.000885635
0.000885638
0.000885643
0.000885648
0.000885654
0.000885662
0.000885671
0.000885683
0.000885697
0.000885714
0.000885737
0.000885767
0.000885807
0.000885862
0.00088594
0.000886056
0.000886233
0.00088651
0.00088703
0.000887603
0.000888491
0.000890338
0.000891996
0.000895067
0.00090312
0.000915984
0.000926796
0.000924074
0.000912002
0.000901533
0.000895268
0.000891781
0.00088829
0.000888367
0.000886951
0.000886727
0.000886507
0.000886325
0.000886211
0.000886135
0.000886084
0.000886049
0.000886025
0.000886008
0.000885995
0.000885987
0.00088598
0.000885974
0.00088597
0.000885967
0.000885964
0.000885962
0.00088596
0.000885958
0.000885957
0.000885956
0.000885956
0.000883874
0.000883874
0.000883876
0.000883878
0.000883882
0.000883886
0.000883892
0.000883899
0.000883907
0.000883918
0.000883931
0.000883947
0.000883968
0.000883995
0.000884032
0.000884082
0.000884153
0.000884257
0.000884414
0.000884663
0.000885062
0.000885828
0.000886572
0.000887795
0.000891249
0.00089392
0.000904112
0.000841194
0.00036982
0.000256657
0.000293654
0.000508045
0.000922286
0.000902416
0.000894202
0.000888013
0.000887521
0.000885674
0.000885297
0.000885018
0.000884769
0.000884612
0.000884505
0.000884433
0.000884382
0.000884346
0.00088432
0.000884301
0.000884286
0.000884275
0.000884266
0.000884259
0.000884253
0.000884248
0.000884244
0.000884241
0.000884238
0.000884236
0.000884235
0.000884235
0.000882158
0.000882159
0.00088216
0.000882163
0.000882166
0.000882171
0.000882177
0.000882184
0.000882194
0.000882205
0.00088222
0.000882238
0.000882262
0.000882295
0.000882339
0.0008824
0.000882489
0.000882622
0.000882829
0.000883164
0.00088372
0.000884789
0.000885707
0.00088754
0.000893339
0.000898094
0.000927381
0.000384865
0.000161604
8.99737e-05
0.000115701
0.000232221
0.000616452
0.000916842
0.000898836
0.000889008
0.000886928
0.00088457
0.000883955
0.000883606
0.000883284
0.000883076
0.000882935
0.000882836
0.000882767
0.000882717
0.000882681
0.000882653
0.000882632
0.000882616
0.000882602
0.000882592
0.000882583
0.000882576
0.00088257
0.000882566
0.000882562
0.000882559
0.000882557
0.000882557
0.000880482
0.000880482
0.000880484
0.000880487
0.00088049
0.000880495
0.000880502
0.00088051
0.000880519
0.000880532
0.000880548
0.000880569
0.000880596
0.000880633
0.000880685
0.000880759
0.000880868
0.000881033
0.000881297
0.000881733
0.000882478
0.000883888
0.000884976
0.000887697
0.000896624
0.000904318
0.000869039
0.000308961
0.000210572
0.000161329
0.00059718
0.000936828
0.00090489
0.000891411
0.000886568
0.000883655
0.000882702
0.000882263
0.000881865
0.000881602
0.00088142
0.000881293
0.000881202
0.000881136
0.000881087
0.00088105
0.000881022
0.000880999
0.000880981
0.000880967
0.000880955
0.000880946
0.000880938
0.000880932
0.000880927
0.000880923
0.000880921
0.00088092
0.000878843
0.000878844
0.000878846
0.000878848
0.000878852
0.000878857
0.000878864
0.000878872
0.000878883
0.000878896
0.000878913
0.000878936
0.000878966
0.000879009
0.000879068
0.000879154
0.000879284
0.000879485
0.000879812
0.000880358
0.000881325
0.000883082
0.000884414
0.000888253
0.000900906
0.000910488
0.000909139
0.000396025
0.000394817
6.27274e-05
5.77274e-05
0.000747489
0.000951611
0.000910478
0.000894709
0.000886456
0.000882946
0.000881548
0.000880986
0.000880509
0.000880186
0.00087996
0.0008798
0.000879686
0.000879602
0.000879539
0.000879492
0.000879455
0.000879425
0.000879402
0.000879383
0.000879368
0.000879355
0.000879345
0.000879337
0.000879331
0.000879326
0.000879323
0.000879322
0.000877242
0.000877242
0.000877244
0.000877247
0.00087725
0.000877255
0.000877262
0.000877271
0.000877281
0.000877295
0.000877314
0.000877338
0.000877372
0.000877418
0.000877485
0.000877584
0.000877735
0.000877972
0.000878365
0.000879025
0.000880236
0.000882337
0.000884123
0.00088921
0.000906035
0.00091632
0.00104629
0.000797641
0.000491705
0.000704465
0.000169132
0.00023699
0.00027988
0.000948453
0.000914256
0.000898213
0.000886666
0.000882483
0.000880516
0.000879774
0.000879214
0.000878825
0.000878551
0.000878356
0.000878216
0.000878112
0.000878034
0.000877974
0.000877928
0.000877891
0.000877862
0.000877838
0.000877819
0.000877803
0.000877791
0.000877781
0.000877773
0.000877767
0.000877763
0.000877762
0.000875674
0.000875675
0.000875677
0.000875679
0.000875683
0.000875688
0.000875695
0.000875703
0.000875714
0.000875729
0.000875748
0.000875774
0.00087581
0.000875861
0.000875935
0.000876046
0.000876217
0.00087649
0.000876948
0.000877721
0.000879183
0.000881643
0.000884257
0.000890695
0.000912058
0.000925541
0.00108344
0.00103894
0.000645019
0.00125587
0.000730131
0.000338281
0.000163405
0.000917986
0.000917815
0.000902034
0.000887411
0.000882359
0.000879647
0.000878633
0.000877977
0.000877516
0.000877191
0.000876957
0.000876788
0.000876663
0.000876568
0.000876496
0.000876439
0.000876394
0.000876359
0.00087633
0.000876306
0.000876287
0.000876272
0.00087626
0.00087625
0.000876243
0.000876238
0.000876237
0.000874141
0.000874141
0.000874143
0.000874145
0.000874149
0.000874154
0.00087416
0.000874169
0.00087418
0.000874195
0.000874215
0.000874242
0.00087428
0.000874335
0.000874415
0.000874536
0.000874725
0.000875031
0.000875551
0.000876437
0.000878135
0.000881011
0.000884959
0.000893029
0.000918809
0.000943675
0.00110957
0.00114952
0.000851668
0.00120935
0.000762548
0.000186393
0.000146402
0.000783654
0.000925149
0.000907502
0.000889094
0.000882693
0.00087899
0.000877571
0.000876795
0.000876256
0.000875875
0.000875599
0.0008754
0.000875252
0.00087514
0.000875054
0.000874986
0.000874933
0.00087489
0.000874856
0.000874828
0.000874805
0.000874787
0.000874772
0.000874761
0.000874753
0.000874747
0.000874745
0.000872639
0.000872639
0.000872641
0.000872643
0.000872647
0.000872651
0.000872658
0.000872666
0.000872678
0.000872693
0.000872713
0.000872741
0.000872781
0.000872838
0.000872922
0.000873052
0.000873256
0.000873595
0.00087417
0.000875167
0.000877061
0.000880445
0.000886291
0.000896668
0.000926387
0.000973242
0.00112914
0.00124881
0.00107081
0.00100551
0.000971311
0.000211068
0.000236496
0.000440018
0.000932642
0.000915544
0.000892132
0.000883555
0.00087858
0.000876589
0.000875664
0.000875038
0.000874599
0.00087428
0.000874049
0.000873877
0.000873746
0.000873646
0.000873568
0.000873505
0.000873455
0.000873415
0.000873382
0.000873356
0.000873334
0.000873317
0.000873304
0.000873294
0.000873288
0.000873285
0.000871168
0.000871168
0.00087117
0.000871172
0.000871175
0.00087118
0.000871186
0.000871194
0.000871205
0.00087122
0.000871241
0.000871269
0.000871309
0.000871368
0.000871456
0.000871594
0.000871813
0.00087218
0.000872801
0.000873906
0.00087594
0.000879909
0.000888142
0.000902003
0.000935852
0.00101223
0.00116995
0.00145596
0.00150208
0.00117035
0.00106919
0.000470015
0.000204456
0.000284748
0.000912933
0.000924139
0.000896544
0.000884898
0.000878415
0.000875682
0.000874576
0.000873856
0.000873358
0.000872994
0.000872731
0.000872534
0.000872385
0.000872271
0.00087218
0.000872109
0.000872052
0.000872005
0.000871968
0.000871937
0.000871912
0.000871893
0.000871878
0.000871867
0.00087186
0.000871856
0.000869727
0.000869727
0.000869728
0.00086973
0.000869733
0.000869738
0.000869744
0.000869751
0.000869762
0.000869777
0.000869797
0.000869825
0.000869865
0.000869925
0.000870018
0.000870163
0.000870392
0.000870782
0.000871436
0.000872642
0.000874768
0.000879324
0.000890198
0.000908904
0.000950405
0.00105686
0.00151557
0.00258916
0.00259534
0.00185459
0.0012724
0.000699548
0.000133246
0.000228889
0.000860916
0.000930121
0.000901338
0.000886438
0.000878433
0.000874837
0.000873521
0.000872703
0.000872147
0.000871737
0.000871443
0.000871222
0.000871055
0.000870925
0.000870823
0.000870742
0.000870677
0.000870625
0.000870582
0.000870548
0.00087052
0.000870498
0.000870481
0.000870468
0.00087046
0.000870456
0.000868314
0.000868314
0.000868316
0.000868317
0.00086832
0.000868324
0.000868329
0.000868337
0.000868347
0.000868361