/*--------------------------------*- C++ -*----------------------------------*\
  =========                 |
  \\      /  F ield         | OpenFOAM: The Open Source CFD Toolbox
   \\    /   O peration     | Website:  https://openfoam.org
    \\  /    A nd           | Version:  12
     \\/     M anipulation  |
\*---------------------------------------------------------------------------*/
FoamFile
{
    format      ascii;
    class       volScalarField;
    location    "240";
    object      omega;
}
// * * * * * * * * * * * * * * * * * * * * * * * * * * * * * * * * * * * * * //

dimensions      [0 0 -1 0 0 0 0];

internalField   nonuniform List<scalar> 
16227
(
9.34702
9.34704
9.34704
9.34707
9.34706
9.3471
9.34709
9.34708
9.34707
9.34709
9.34713
9.34715
9.3472
9.3472
9.3472
9.3472
9.3472
9.3472
9.3472
9.3472
9.3472
9.3472
9.3472
9.3472
9.3472
9.3472
9.3472
9.34722
9.34722
9.3472
9.34721
9.3472
9.3472
9.3472
9.34721
9.3472
9.3472
9.3472
9.3472
9.3472
9.3472
9.3472
9.3472
9.3472
9.3472
9.3472
9.3472
9.34719
9.34717
9.34717
9.34717
9.34716
9.3471
9.3471
9.34706
9.34705
9.34707
9.34705
9.34703
9.34702
8.71806
8.71809
8.71808
8.71811
8.71812
8.71815
8.71814
8.71811
8.71812
8.71814
8.71819
8.71821
8.71835
8.7184
8.71841
8.71841
8.71841
8.71841
8.71841
8.71841
8.71842
8.71844
8.71843
8.71843
8.71843
8.71843
8.71843
8.71842
8.71841
8.71835
8.7184
8.71842
8.71842
8.71842
8.71842
8.71841
8.71839
8.71839
8.71839
8.71839
8.71839
8.71839
8.71839
8.71838
8.71838
8.71837
8.71837
8.71837
8.71837
8.71836
8.71833
8.71828
8.71817
8.71816
8.71812
8.7181
8.71814
8.71806
8.71807
8.71805
8.16623
8.16625
8.16625
8.16627
8.16626
8.16635
8.1663
8.16629
8.1663
8.16631
8.16636
8.16637
8.16662
8.16667
8.16668
8.16669
8.16669
8.16669
8.16671
8.16665
8.16668
8.16669
8.16669
8.16668
8.16667
8.16667
8.16666
8.16667
8.16665
8.16658
8.16663
8.16664
8.16664
8.16663
8.16664
8.16663
8.16663
8.16662
8.16661
8.16661
8.16661
8.16662
8.16661
8.1666
8.1666
8.1666
8.1666
8.1666
8.16659
8.16657
8.16654
8.16635
8.16628
8.16626
8.16625
8.16624
8.16627
8.16618
8.1662
8.16617
7.67838
7.6784
7.6784
7.67841
7.67842
7.67849
7.67849
7.67846
7.67846
7.67846
7.67851
7.67857
7.67882
7.67889
7.67891
7.67892
7.67893
7.67894
7.67887
7.67875
7.67885
7.67888
7.67887
7.67887
7.67886
7.67885
7.67883
7.67882
7.67879
7.67869
7.67876
7.67877
7.67875
7.67875
7.67874
7.67875
7.67875
7.67874
7.67874
7.67874
7.67874
7.67874
7.67874
7.67874
7.67874
7.67874
7.67875
7.67875
7.67875
7.67873
7.67862
7.67843
7.67834
7.67836
7.67836
7.67838
7.67836
7.67829
7.67829
7.67827
7.24418
7.2442
7.2442
7.24422
7.24423
7.24429
7.24432
7.24426
7.24427
7.24428
7.24432
7.24438
7.24462
7.24475
7.24476
7.24476
7.24476
7.24474
7.24453
7.24445
7.24463
7.24468
7.24467
7.24464
7.24461
7.24459
7.24456
7.24454
7.2445
7.24438
7.24445
7.24446
7.24445
7.24444
7.24443
7.24443
7.24443
7.24443
7.24443
7.24444
7.24445
7.24446
7.24446
7.24446
7.24447
7.24449
7.24449
7.2445
7.2445
7.24443
7.2442
7.2441
7.24403
7.24407
7.24409
7.24414
7.24408
7.24402
7.24402
7.244
6.85538
6.8554
6.8554
6.85542
6.85542
6.85548
6.85552
6.85547
6.85546
6.85546
6.85548
6.85552
6.85563
6.85591
6.85598
6.85599
6.85598
6.85588
6.85564
6.85559
6.85578
6.85582
6.85579
6.85575
6.85571
6.85568
6.85564
6.8556
6.85553
6.85541
6.85547
6.85547
6.85545
6.85544
6.85544
6.85543
6.85544
6.85544
6.85545
6.85546
6.85547
6.85549
6.85551
6.85553
6.85554
6.85556
6.85558
6.8556
6.8556
6.85548
6.85526
6.85516
6.85513
6.85519
6.85524
6.85524
6.85519
6.85513
6.85513
6.85512
6.50532
6.50534
6.50534
6.50536
6.50536
6.50541
6.50545
6.50544
6.50541
6.50541
6.5054
6.50541
6.50552
6.50578
6.50591
6.50593
6.50589
6.5056
6.50547
6.50545
6.50565
6.50567
6.50561
6.50556
6.5055
6.50544
6.50538
6.50532
6.50525
6.5051
6.50515
6.50514
6.50512
6.5051
6.5051
6.5051
6.5051
6.50512
6.50514
6.50517
6.50519
6.50522
6.50525
6.50527
6.50532
6.50534
6.50537
6.5054
6.50535
6.50511
6.505
6.50493
6.50495
6.50504
6.50506
6.50506
6.50503
6.50498
6.50499
6.50497
6.18858
6.18859
6.18859
6.18861
6.18861
6.18865
6.1887
6.1887
6.18867
6.18864
6.18863
6.1886
6.18866
6.18879
6.18908
6.18916
6.18909
6.18875
6.18863
6.1886
6.18879
6.18879
6.18871
6.18863
6.18855
6.18847
6.18839
6.1883
6.1882
6.18803
6.18808
6.18806
6.18803
6.18801
6.188
6.18801
6.18802
6.18804
6.18807
6.18811
6.18816
6.18819
6.18824
6.1883
6.18835
6.18839
6.18844
6.18846
6.18836
6.18814
6.18805
6.18804
6.18811
6.18817
6.18818
6.1882
6.18817
6.18813
6.18814
6.18813
5.90067
5.90068
5.90069
5.9007
5.9007
5.90074
5.90078
5.90078
5.90078
5.90074
5.90071
5.90067
5.90069
5.90079
5.90113
5.90122
5.90106
5.90073
5.90062
5.90057
5.90075
5.90072
5.90061
5.9005
5.90039
5.90028
5.90017
5.90006
5.89994
5.89974
5.89977
5.89974
5.89971
5.89969
5.89968
5.89969
5.89971
5.89975
5.89979
5.89984
5.8999
5.89998
5.90004
5.90011
5.90017
5.90025
5.9003
5.90028
5.90006
5.89997
5.89993
5.90001
5.90005
5.90012
5.90015
5.90017
5.90015
5.90012
5.90013
5.90013
5.63789
5.6379
5.6379
5.63792
5.63792
5.63795
5.63799
5.63799
5.63799
5.63798
5.63793
5.63787
5.63789
5.63799
5.63826
5.63835
5.63803
5.63782
5.63771
5.63766
5.6378
5.63775
5.63762
5.63747
5.63732
5.63718
5.63704
5.6369
5.63674
5.63653
5.63654
5.63649
5.63645
5.63642
5.63642
5.63643
5.63646
5.63652
5.63659
5.63665
5.63673
5.63682
5.63693
5.63702
5.63712
5.63721
5.63728
5.63724
5.63702
5.63696
5.637
5.63706
5.63712
5.6372
5.63724
5.63727
5.63726
5.63724
5.63725
5.63725
5.39713
5.39714
5.39715
5.39715
5.39717
5.39719
5.39722
5.39722
5.39721
5.3972
5.39718
5.39709
5.39706
5.39711
5.39722
5.39743
5.39713
5.39695
5.39683
5.39675
5.39681
5.39677
5.39661
5.39643
5.39624
5.39606
5.39587
5.3957
5.39552
5.39527
5.39526
5.3952
5.39515
5.39512
5.39512
5.39514
5.39519
5.39526
5.39534
5.39545
5.39555
5.39567
5.3958
5.39592
5.39604
5.39614
5.39617
5.3961
5.396
5.39599
5.39606
5.39613
5.39621
5.3963
5.39635
5.39639
5.3964
5.39638
5.3964
5.3964
5.17577
5.17578
5.17579
5.1758
5.1758
5.17583
5.17585
5.17586
5.17585
5.17583
5.17581
5.17574
5.17568
5.17567
5.17574
5.1759
5.17567
5.17549
5.17533
5.17521
5.1751
5.17513
5.17498
5.17475
5.17452
5.17429
5.17407
5.17386
5.17363
5.17336
5.17333
5.17325
5.17319
5.17316
5.17316
5.17319
5.17325
5.17335
5.17345
5.17358
5.17373
5.17387
5.17403
5.17419
5.17434
5.17443
5.17438
5.1744
5.17441
5.17442
5.17451
5.17462
5.17471
5.17481
5.17487
5.17493
5.17493
5.17493
5.17495
5.17496
4.97159
4.9716
4.9716
4.97161
4.97162
4.97165
4.97167
4.97167
4.97166
4.97165
4.97162
4.97155
4.97149
4.97141
4.97139
4.97139
4.97134
4.9712
4.97102
4.97085
4.97066
4.97069
4.9705
4.97023
4.96995
4.96967
4.9694
4.96914
4.96888
4.96857
4.96851
4.96841
4.96834
4.96831
4.96832
4.96837
4.96845
4.96856
4.96871
4.96887
4.96905
4.96924
4.96943
4.96962
4.96979
4.96988
4.96987
4.96996
4.96998
4.97004
4.97015
4.97027
4.97039
4.97049
4.97058
4.97063
4.97066
4.97066
4.97069
4.9707
4.78268
4.7827
4.7827
4.78271
4.78272
4.78274
4.78276
4.78277
4.78276
4.78274
4.78271
4.78264
4.78258
4.7825
4.7824
4.78237
4.78234
4.7822
4.78199
4.78178
4.78155
4.78154
4.7813
4.78097
4.78063
4.7803
4.77997
4.77966
4.77935
4.779
4.77891
4.7788
4.77871
4.77868
4.7787
4.77876
4.77887
4.77902
4.7792
4.7794
4.77962
4.77985
4.78008
4.7803
4.78043
4.78052
4.78064
4.78077
4.78084
4.78094
4.78108
4.78122
4.78135
4.78147
4.78157
4.78164
4.78167
4.78169
4.78172
4.78173
4.60742
4.60744
4.60744
4.60745
4.60746
4.60749
4.60751
4.60751
4.60751
4.60749
4.60746
4.60739
4.60732
4.60723
4.60713
4.60707
4.60703
4.60686
4.60661
4.60636
4.60609
4.60602
4.60572
4.60534
4.60493
4.60454
4.60415
4.60378
4.60341
4.60302
4.6029
4.60277
4.60267
4.60264
4.60267
4.60275
4.60289
4.60308
4.60329
4.60354
4.6038
4.60409
4.60436
4.60458
4.60466
4.60486
4.60505
4.60522
4.60535
4.60548
4.60566
4.60582
4.60597
4.60611
4.60621
4.6063
4.60635
4.60638
4.60641
4.60642
4.4444
4.44441
4.44442
4.44443
4.44444
4.44447
4.4445
4.4445
4.4445
4.44448
4.44444
4.44438
4.44431
4.44421
4.44411
4.44404
4.44396
4.44377
4.44349
4.44319
4.44288
4.44269
4.44237
4.44193
4.44145
4.44098
4.44052
4.44009
4.43966
4.43922
4.43906
4.4389
4.4388
4.43877
4.43881
4.43893
4.4391
4.43933
4.43959
4.43989
4.4402
4.44054
4.44085
4.44108
4.44123
4.44147
4.44171
4.44189
4.44207
4.44227
4.44248
4.44267
4.44284
4.443
4.44312
4.44322
4.44327
4.44331
4.44335
4.44336
4.29239
4.2924
4.29241
4.29242
4.29244
4.29247
4.2925
4.2925
4.29251
4.2925
4.29246
4.29239
4.29232
4.29222
4.29211
4.29202
4.29193
4.2917
4.29139
4.29103
4.29066
4.29028
4.29
4.28953
4.28898
4.28842
4.28787
4.28736
4.28687
4.28638
4.28617
4.28599
4.28587
4.28585
4.28591
4.28606
4.28628
4.28655
4.28687
4.28722
4.28761
4.28798
4.28827
4.28852
4.2888
4.28912
4.28941
4.28963
4.28985
4.2901
4.29034
4.29056
4.29074
4.29092
4.29106
4.29116
4.29123
4.29127
4.29132
4.29133
4.15032
4.15034
4.15035
4.15037
4.15038
4.15042
4.15045
4.15046
4.15047
4.15046
4.15043
4.15037
4.15029
4.15019
4.15007
4.14997
4.14986
4.14962
4.14927
4.14886
4.14841
4.14793
4.14761
4.14707
4.14643
4.14578
4.14514
4.14454
4.14397
4.14342
4.14316
4.14295
4.14282
4.1428
4.1429
4.14308
4.14335
4.14368
4.14407
4.14449
4.14492
4.14533
4.14559
4.14596
4.14634
4.14673
4.14707
4.14733
4.14761
4.14789
4.14817
4.1484
4.14861
4.14881
4.14896
4.14908
4.14915
4.14921
4.14925
4.14928
4.01727
4.01728
4.01729
4.01732
4.01734
4.01738
4.01742
4.01743
4.01745
4.01745
4.01743
4.01737
4.01729
4.01719
4.01706
4.01695
4.01682
4.01655
4.01619
4.01573
4.01522
4.01468
4.01422
4.01363
4.01289
4.01213
4.01139
4.01068
4.01003
4.0094
4.00909
4.00884
4.00871
4.0087
4.00882
4.00906
4.00938
4.00978
4.01024
4.01072
4.01123
4.01168
4.01202
4.01247
4.01293
4.01336
4.01372
4.01405
4.01439
4.01473
4.01502
4.01529
4.01552
4.01573
4.01589
4.01603
4.01611
4.01618
4.01622
4.01625
3.8924
3.89242
3.89243
3.89246
3.89248
3.89253
3.89258
3.8926
3.89262
3.89263
3.89262
3.89257
3.8925
3.89241
3.89228
3.89214
3.89199
3.89172
3.89132
3.89083
3.89025
3.88962
3.88895
3.88835
3.88755
3.88666
3.88579
3.88497
3.88421
3.8835
3.88313
3.88285
3.88271
3.88272
3.88288
3.88317
3.88356
3.88404
3.88455
3.88508
3.88563
3.88613
3.88665
3.88719
3.88774
3.88821
3.88861
3.889
3.8894
3.88977
3.8901
3.89039
3.89064
3.89087
3.89105
3.89119
3.89129
3.89135
3.89141
3.89144
3.77499
3.77501
3.77503
3.77506
3.77509
3.77515
3.7752
3.77524
3.77527
3.77529
3.77529
3.77526
3.7752
3.77511
3.77497
3.7748
3.77462
3.77437
3.77397
3.77345
3.77282
3.77209
3.7713
3.77062
3.76968
3.76866
3.76764
3.76668
3.76579
3.76498
3.76453
3.76422
3.76408
3.76412
3.76433
3.76468
3.76516
3.7657
3.76629
3.76692
3.76749
3.76812
3.76877
3.76942
3.77002
3.77052
3.77099
3.77146
3.77191
3.77231
3.77267
3.77298
3.77326
3.7735
3.77369
3.77384
3.77395
3.77402
3.77409
3.77412
3.6644
3.66443
3.66445
3.66449
3.66452
3.66459
3.66465
3.6647
3.66474
3.66478
3.66479
3.66478
3.66473
3.66465
3.66453
3.66435
3.66416
3.66392
3.6635
3.66294
3.66226
3.66147
3.66057
3.65974
3.65868
3.65749
3.6563
3.65517
3.65413
3.65321
3.65267
3.65232
3.65218
3.65225
3.65253
3.65297
3.6535
3.65413
3.65484
3.65558
3.65627
3.65701
3.65778
3.6585
3.65915
3.65972
3.66026
3.66079
3.66127
3.66171
3.66209
3.66243
3.66272
3.66298
3.66318
3.66335
3.66346
3.66355
3.66361
3.66364
3.56006
3.56009
3.56012
3.56015
3.5602
3.56027
3.56035
3.56041
3.56047
3.56052
3.56055
3.56056
3.56054
3.56048
3.56037
3.5602
3.56001
3.55975
3.55934
3.55877
3.55804
3.55718
3.5562
3.55514
3.55404
3.55265
3.55125
3.54992
3.54871
3.54764
3.54701
3.54663
3.54649
3.54661
3.54697
3.5475
3.54804
3.54877
3.54956
3.55043
3.55131
3.5522
3.55306
3.55384
3.55454
3.55519
3.55582
3.5564
3.55693
3.55739
3.55781
3.55816
3.55847
3.55874
3.55896
3.55913
3.55925
3.55934
3.5594
3.55944
3.46145
3.46148
3.46151
3.46156
3.46162
3.46169
3.46178
3.46186
3.46194
3.46201
3.46207
3.46209
3.4621
3.46206
3.46198
3.46183
3.46161
3.46134
3.46097
3.46041
3.45967
3.45875
3.4577
3.45701
3.50315
3.5017
3.50016
3.49869
3.49736
3.49618
3.49549
3.49508
3.49494
3.4951
3.49551
3.49609
3.44864
3.44914
3.45009
3.45112
3.45217
3.45318
3.45413
3.45496
3.45573
3.45648
3.45717
3.45781
3.45836
3.45886
3.4593
3.45967
3.45999
3.46027
3.4605
3.46068
3.46081
3.4609
3.46097
3.46101
3.36812
3.36815
3.36819
3.36824
3.36831
3.3684
3.3685
3.36859
3.36869
3.36879
3.36887
3.36892
3.36896
3.36896
3.36891
3.36878
3.36858
3.36831
3.36794
3.36745
3.36671
3.36578
3.36518
3.40903
3.40572
3.40423
3.40241
3.40064
3.39903
3.39762
3.39677
3.39628
3.39614
3.39636
3.39686
3.39751
3.40001
3.35522
3.35602
3.3572
3.35838
3.35951
3.36053
3.36145
3.3623
3.36312
3.36387
3.36454
3.36513
3.36566
3.36611
3.3665
3.36684
3.36713
3.36736
3.36754
3.36768
3.36778
3.36784
3.36788
3.27966
3.27969
3.27973
3.27979
3.27987
3.27997
3.28008
3.2802
3.28032
3.28044
3.28055
3.28064
3.28071
3.28075
3.28074
3.28066
3.28051
3.28026
3.27993
3.27947
3.27878
3.27788
3.27766
3.31719
3.31392
3.33452
3.33248
3.33044
3.32858
3.32696
3.326
3.32544
3.32531
3.32559
3.32617
3.30448
3.30673
3.26621
3.26691
3.26824
3.26954
3.27076
3.27185
3.27287
3.27383
3.27471
3.2755
3.27621
3.27683
3.27737
3.27784
3.27825
3.27859
3.27889
3.27913
3.27931
3.27945
3.27955
3.27962
3.27966
3.19569
3.19572
3.19577
3.19583
3.19592
3.19604
3.19617
3.1963
3.19645
3.19659
3.19674
3.19686
3.19697
3.19706
3.19711
3.19709
3.197
3.19681
3.19651
3.1961
3.19551
3.19473
3.19494
3.23046
3.2273
3.24576
3.24344
3.241
3.23878
3.23692
3.23572
3.23505
3.23492
3.23523
3.23578
3.21649
3.21831
3.18185
3.18245
3.18388
3.18529
3.18658
3.18778
3.18891
3.18995
3.19088
3.19171
3.19244
3.19308
3.19364
3.19412
3.19454
3.19489
3.19519
3.19543
3.19562
3.19576
3.19586
3.19593
3.19597
3.11588
3.11592
3.11597
3.11604
3.11614
3.11627
3.11641
3.11657
3.11674
3.11691
3.11709
3.11726
3.11742
3.11756
3.11767
3.11773
3.11772
3.11762
3.1174
3.11707
3.11659
3.11604
3.11675
3.14868
3.14565
3.16217
3.15955
3.15687
3.15438
3.15227
3.15083
3.14996
3.14967
3.14984
3.1504
3.13291
3.13464
3.10186
3.10231
3.10382
3.10531
3.10671
3.10803
3.10924
3.11033
3.1113
3.11216
3.11291
3.11357
3.11414
3.11463
3.11504
3.1154
3.1157
3.11594
3.11613
3.11627
3.11636
3.11644
3.11648
3.03993
3.03997
3.04003
3.04011
3.04022
3.04036
3.04052
3.0407
3.04089
3.04109
3.04131
3.04152
3.04173
3.04194
3.04212
3.04226
3.04236
3.04238
3.0423
3.04212
3.04181
3.04158
3.04284
3.07161
3.06912
3.08406
3.08099
3.07887
3.0768
3.07485
3.07299
3.07133
3.0702
3.06973
3.07004
3.05377
3.05559
3.02594
3.02621
3.02777
3.02938
3.03089
3.03229
3.03355
3.03468
3.03568
3.03656
3.03732
3.03798
3.03856
3.03905
3.03946
3.03981
3.04011
3.04035
3.04054
3.04067
3.04077
3.04084
3.04088
2.96757
2.96762
2.96768
2.96777
2.96788
2.96804
2.96821
2.96841
2.96863
2.96886
2.96911
2.96937
2.96964
2.96991
2.97017
2.97041
2.97063
2.9708
2.97092
2.97096
2.97095
2.97118
2.97302
2.99914
2.998
3.01147
3.00932
3.00999
3.01174
3.01232
3.00927
3.00375
2.99882
2.9961
2.99513
2.979
2.98098
2.95391
2.95401
2.95562
2.95729
2.95887
2.96031
2.96159
2.96274
2.96375
2.96463
2.9654
2.96606
2.96663
2.96711
2.96752
2.96787
2.96816
2.96839
2.96857
2.9687
2.9688
2.96886
2.96891
2.89855
2.8986
2.89866
2.89876
2.89888
2.89905
2.89924
2.89946
2.8997
2.89996
2.90025
2.90055
2.90088
2.90122
2.90156
2.90192
2.90227
2.90262
2.90296
2.90332
2.90373
2.90465
2.90712
2.93112
2.9327
2.9454
2.94788
2.96101
2.98494
3.00459
2.99419
2.96524
2.94285
2.9315
2.92679
2.90902
2.91065
2.88562
2.88552
2.88712
2.88879
2.89038
2.89182
2.89312
2.89426
2.89527
2.89614
2.8969
2.89755
2.8981
2.89858
2.89898
2.89931
2.89959
2.89981
2.89998
2.90011
2.9002
2.90026
2.9003
2.83264
2.83269
2.83276
2.83286
2.83299
2.83317
2.83338
2.83361
2.83387
2.83417
2.83449
2.83483
2.83521
2.83562
2.83606
2.83652
2.83702
2.83757
2.83819
2.83893
2.83989
2.84172
2.845
2.86765
2.87352
2.887
2.90628
2.97281
3.15736
3.38263
3.28102
3.04279
2.92299
2.88097
2.8666
2.84447
2.84444
2.82107
2.82053
2.82205
2.82365
2.82521
2.82663
2.8279
2.82902
2.83
2.83086
2.83159
2.83222
2.83276
2.83321
2.83359
2.83391
2.83417
2.83438
2.83454
2.83466
2.83474
2.8348
2.83484
2.76964
2.76969
2.76976
2.76986
2.77001
2.77019
2.77041
2.77066
2.77094
2.77126
2.77162
2.772
2.77243
2.77291
2.77343
2.77401
2.77466
2.77542
2.77633
2.7775
2.77912
2.78204
2.78619
2.80864
2.82078
2.83773
2.90396
3.20721
4.4741
9.17985
7.24456
3.86718
2.99893
2.85078
2.8149
2.78659
2.78237
2.76
2.75881
2.76017
2.76165
2.76314
2.7645
2.76572
2.7668
2.76774
2.76856
2.76926
2.76986
2.77037
2.77079
2.77115
2.77145
2.77169
2.77189
2.77204
2.77215
2.77222
2.77228
2.77232
2.70935
2.7094
2.70947
2.70958
2.70973
2.70992
2.71015
2.71041
2.71072
2.71106
2.71144
2.71186
2.71234
2.71288
2.71348
2.71416
2.71496
2.71592
2.71714
2.71877
2.72112
2.7252
2.73016
2.75336
2.77371
2.79666
2.95236
3.85838
12.824
12.8079
3.28637
2.84127
2.76989
2.73526
2.7241
2.70225
2.70016
2.70125
2.70258
2.70395
2.70522
2.70637
2.70739
2.70827
2.70904
2.7097
2.71026
2.71073
2.71112
2.71146
2.71173
2.71195
2.71213
2.71227
2.71237
2.71244
2.71249
2.71254
2.6516
2.65165
2.65173
2.65185
2.652
2.6522
2.65243
2.6527
2.65302
2.65338
2.65378
2.65423
2.65475
2.65534
2.65601
2.65679
2.65772
2.65888
2.66038
2.66245
2.66555
2.67072
2.67658
2.70098
2.73085
2.75741
3.01448
4.31299
16.0167
270.546
644.155
4.38316
2.84439
2.72673
2.68894
2.66951
2.64775
2.64448
2.6452
2.64633
2.64755
2.64869
2.64974
2.65066
2.65148
2.65218
2.65278
2.65329
2.65371
2.65407
2.65437
2.65461
2.65481
2.65497
2.65509
2.65518
2.65524
2.65528
2.65532
2.59624
2.5963
2.59637
2.59649
2.59665
2.59685
2.59709
2.59737
2.59769
2.59806
2.59848
2.59896
2.5995
2.60013
2.60086
2.60171
2.60275
2.60407
2.60582
2.60827
2.61207
2.6182
2.62531
2.65112
2.69086
2.71819
3.05115
4.28575
12.5156
101.709
335.875
579.436
13.3045
2.86871
2.68246
2.64549
2.61841
2.59629
2.59162
2.5918
2.59269
2.59372
2.59471
2.59563
2.59645
2.59716
2.59779
2.59831
2.59876
2.59914
2.59945
2.59971
2.59991
2.60009
2.60022
2.60032
2.60039
2.60044
2.60048
2.60051
2.54312
2.54318
2.54326
2.54337
2.54353
2.54373
2.54398
2.54426
2.54459
2.54497
2.5454
2.54589
2.54645
2.5471
2.54786
2.54877
2.54989
2.55131
2.55324
2.55598
2.56035
2.56735
2.57628
2.60352
2.65294
2.68658
3.05191
4.03679
8.59803
25.1587
71.8094
421.21
22.7361
2.97504
2.64129
2.60483
2.57097
2.54788
2.54144
2.54088
2.54149
2.54229
2.5431
2.54387
2.54456
2.54517
2.5457
2.54615
2.54653
2.54685
2.5471
2.54732
2.54748
2.54763
2.54773
2.54781
2.54787
2.5479
2.54793
2.54796
2.49211
2.49216
2.49224
2.49236
2.49251
2.49272
2.49296
2.49324
2.49358
2.49395
2.49439
2.49488
2.49545
2.49611
2.49689
2.49781
2.49894
2.50039
2.50244
2.5054
2.51025
2.51807
2.52961
2.55866
2.61617
2.67299
3.02555
3.78592
6.39721
11.8192
31.5818
285.08
59.5847
3.64557
2.61658
2.5698
2.52783
2.50259
2.49386
2.49229
2.49255
2.4931
2.49371
2.4943
2.49486
2.49535
2.49577
2.49613
2.49644
2.49669
2.49689
2.49706
2.49719
2.49729
2.49737
2.49743
2.49746
2.49748
2.4975
2.49753
2.44309
2.44313
2.44321
2.44333
2.44348
2.44368
2.44392
2.4442
2.44453
2.44491
2.44534
2.44583
2.44639
2.44703
2.44779
2.44866
2.44978
2.45128
2.4534
2.45652
2.46163
2.47024
2.4852
2.51724
2.58036
2.67989
2.98417
3.60067
5.13056
7.92453
14.5616
85.7821
120.227
8.17628
2.63818
2.54197
2.48968
2.46046
2.44884
2.44588
2.44571
2.44598
2.44637
2.44679
2.44719
2.44755
2.44787
2.44814
2.44836
2.44854
2.44869
2.4488
2.44888
2.44895
2.449
2.44903
2.44905
2.44906
2.44907
2.44909
2.39593
2.39598
2.39605
2.39617
2.39632
2.39651
2.39675
2.39702
2.39734
2.39771
2.39813
2.3986
2.39914
2.39972
2.40043
2.40132
2.40244
2.40396
2.40605
2.40924
2.41436
2.42375
2.44273
2.47983
2.54748
2.7004
2.97704
3.63899
4.66904
5.99748
8.21175
27.1936
123.917
19.3428
2.77335
2.51764
2.45623
2.42105
2.40615
2.40146
2.40077
2.40073
2.40091
2.40117
2.40143
2.40166
2.40186
2.40203
2.40217
2.40228
2.40236
2.40242
2.40246
2.40249
2.40251
2.40252
2.40251
2.40251
2.40251
2.40252
2.35054
2.35059
2.35066
2.35077
2.35091
2.3511
2.35133
2.3516
2.35191
2.35226
2.35265
2.35309
2.35358
2.35415
2.35485
2.35572
2.35681
2.35827
2.36029
2.36347
2.36841
2.37843
2.40156
2.44602
2.52383
2.72623
3.2786
4.25316
4.64049
5.03118
6.26769
16.2431
108.556
28.7178
3.03669
2.49014
2.42527
2.38385
2.36556
2.3589
2.35767
2.35734
2.35727
2.35731
2.35742
2.35753
2.35762
2.3577
2.35775
2.35779
2.35781
2.35781
2.35781
2.3578
2.35779
2.35777
2.35774
2.35772
2.35771
2.35772
2.30682
2.30686
2.30693
2.30704
2.30718
2.30736
2.30758
2.30783
2.30813
2.30845
2.30879
2.3092
2.30968
2.31025
2.31092
2.31175
2.31277
2.31416
2.31607
2.31917
2.32383
2.33418
2.3609
2.41262
2.50226
2.89782
5.32164
5.58404
5.6465
5.5897
6.38347
20.8336
99.4535
31.3588
3.24355
2.45632
2.39472
2.34791
2.32667
2.31809
2.31622
2.31558
2.3153
2.31513
2.31505
2.31503
2.31504
2.31503
2.315
2.31496
2.31492
2.31487
2.31482
2.31477
2.31472
2.31468
2.31464
2.3146
2.31458
2.31459
2.26468
2.26472
2.26479
2.26489
2.26502
2.2652
2.2654
2.26564
2.26591
2.26619
2.26652
2.26691
2.26737
2.26791
2.26855
2.26931
2.27026
2.27157
2.27334
2.27631
2.28069
2.29108
2.32002
2.378
2.49812
3.86535
7.0841
5.60085
5.51806
5.63944
8.80898
39.4784
91.3514
30.0783
3.28521
2.41902
2.36341
2.31254
2.28903
2.27876
2.27633
2.27533
2.27486
2.27452
2.27428
2.27411
2.274
2.27391
2.27381
2.27371
2.2736
2.2735
2.2734
2.27332
2.27323
2.27316
2.2731
2.27305
2.27302
2.27302
2.22404
2.22408
2.22414
2.22424
2.22436
2.22453
2.22471
2.22493
2.22516
2.22543
2.22576
2.22613
2.22656
2.22707
2.22765
2.22836
2.22923
2.23045
2.23207
2.23486
2.23909
2.24933
2.27936
2.34224
2.68905
5.02974
7.68394
5.3097
5.52113
7.37599
17.6502
57.8038
82.7513
26.6569
3.27777
2.38451
2.33112
2.27736
2.25235
2.24071
2.23784
2.23654
2.23583
2.23533
2.23496
2.23466
2.23444
2.23425
2.23409
2.23392
2.23376
2.2336
2.23346
2.23334
2.23323
2.23313
2.23305
2.23298
2.23294
2.23294
2.18482
2.18486
2.18492
2.185
2.18512
2.18527
2.18543
2.18561
2.18584
2.18611
2.18642
2.18676
2.18716
2.18763
2.18816
2.18882
2.18962
2.19074
2.19223
2.19488
2.19899
2.209
2.23933
2.30766
3.04571
5.71596
7.80876
5.48018
6.84238
12.5884
31.5556
68.1197
72.6974
22.5199
3.23471
2.35731
2.29813
2.24218
2.21644
2.20381
2.2006
2.19909
2.19819
2.19749
2.19697
2.19655
2.19625
2.19598
2.19574
2.19552
2.19531
2.19511
2.19492
2.19476
2.19462
2.1945
2.1944
2.19432
2.19427
2.19426
2.14696
2.14699
2.14704
2.14712
2.14722
2.14735
2.14749
2.14767
2.14789
2.14814
2.14842
2.14874
2.14911
2.14953
2.15003
2.15062
2.15135
2.15237
2.15375
2.1563
2.16032
2.17007
2.20049
2.27895
3.40049
5.95391
7.66896
6.44486
10.3991
21.9084
45.3159
69.1309
60.8647
18.5276
3.16492
2.33881
2.26482
2.20704
2.18119
2.16798
2.16451
2.16284
2.16181
2.16096
2.16032
2.15979
2.15936
2.15902
2.15871
2.15843
2.15817
2.15793
2.1577
2.15751
2.15733
2.15719
2.15707
2.15698
2.15692
2.1569
2.11037
2.1104
2.11045
2.11052
2.1106
2.11071
2.11086
2.11103
2.11123
2.11146
2.11171
2.11201
2.11234
2.11272
2.11317
2.11372
2.11436
2.1153
2.11661
2.11906
2.12297
2.13248
2.16324
2.25762
3.66115
5.94142
7.34831
7.74942
15.6066
32.5451
54.8294
67.0524
51.3749
15.1376
3.08732
2.32792
2.23128
2.1721
2.14661
2.13316
2.12952
2.12773
2.1266
2.12563
2.1249
2.12427
2.12373
2.12328
2.12291
2.12257
2.12227
2.12199
2.12173
2.1215
2.12131
2.12114
2.121
2.12089
2.12083
2.1208
2.07501
2.07503
2.07507
2.07513
2.07521
2.07531
2.07545
2.0756
2.07579
2.07599
2.07623
2.07649
2.07679
2.07714
2.07754
2.07803
2.0786
2.07948
2.08073
2.08309
2.08686
2.09613
2.12766
2.24165
3.81642
5.81568
6.98573
8.224
18.9811
39.3753
57.7402
62.0223
44.1754
12.567
3.02478
2.32288
2.1973
2.13768
2.11277
2.0993
2.09557
2.09371
2.09249
2.09143
2.0906
2.08989
2.08928
2.08874
2.08828
2.0879
2.08754
2.08722
2.08694
2.08669
2.08646
2.08627
2.08612
2.086
2.08592
2.08589
2.04081
2.04083
2.04086
2.04091
2.04098
2.04108
2.04121
2.04134
2.04151
2.04169
2.0419
2.04214
2.0424
2.04272
2.04308
2.04351
2.04403
2.04487
2.04605
2.04831
2.05195
2.06101
2.09394
2.22787
3.88981
5.65441
6.66009
7.91631
18.3278
39.0996
56.223
56.7505
39.0476
10.9316
2.99272
2.32007
2.16304
2.10401
2.07977
2.0664
2.06262
2.06073
2.05944
2.0583
2.0574
2.05661
2.05593
2.05533
2.05479
2.05433
2.05394
2.05358
2.05326
2.05299
2.05274
2.05254
2.05236
2.05224
2.05215
2.05212
2.00772
2.00773
2.00776
2.0078
2.00787
2.00796
2.00807
2.0082
2.00834
2.0085
2.00869
2.0089
2.00914
2.00941
2.00973
2.01009
2.01059
2.01138
2.01248
2.01467
2.01817
2.02704
2.06206
2.21592
3.90834
5.48891
6.3599
7.49624
15.6668
34.3309
51.9387
54.6265
37.3636
10.6138
2.99047
2.31245
2.12881
2.07128
2.04768
2.03447
2.03066
2.02874
2.02739
2.02618
2.02521
2.02436
2.02361
2.02296
2.02237
2.02184
2.02138
2.021
2.02065
2.02035
2.02009
2.01987
2.01968
2.01954
2.01945
2.01941
1.97569
1.97569
1.97572
1.97576
1.97582
1.9759
1.976
1.97611
1.97623
1.97638
1.97654
1.97672
1.97693
1.97716
1.97744
1.97776
1.97822
1.97896
1.97999
1.98211
1.98548
1.99416
2.03174
2.20662
3.89462
5.33807
6.07255
7.06172
12.8999
28.6285
46.0832
52.4452
38.444
12.7136
3.03687
2.29238
2.09496
2.03954
2.01654
2.00348
1.99966
1.99772
1.99631
1.99504
1.99401
1.99309
1.99229
1.99157
1.99094
1.99037
1.98986
1.98942
1.98905
1.98873
1.98845
1.98822
1.98802
1.98787
1.98778
1.98773
1.94468
1.94467
1.94469
1.94473
1.94478
1.94485
1.94494
1.94503
1.94514
1.94527
1.9454
1.94556
1.94573
1.94593
1.94615
1.94645
1.94688
1.94756
1.94853
1.95058
1.95385
1.96234
2.00254
2.19837
3.85884
5.2148
5.8026
6.60544
10.6163
23.171
39.3242
48.6864
38.6966
16.1971
3.15665
2.25951
2.06172
2.00873
1.98637
1.97344
1.96958
1.96762
1.96615
1.96483
1.96373
1.96276
1.9619
1.96114
1.96046
1.95985
1.95931
1.95883
1.95841
1.95807
1.95778
1.95753
1.95733
1.95717
1.95707
1.95701
1.91463
1.91462
1.91464
1.91467
1.91472
1.91478
1.91485
1.91493
1.91502
1.91513
1.91524
1.91537
1.91551
1.91566
1.91585
1.91613
1.91651
1.91714
1.91806
1.92005
1.92325
1.93151
1.97393
2.18971
3.81814
5.13055
5.55683
6.13111
8.89555
18.6505
33.8948
44.614
37.4979
18.679
3.26202
2.22134
2.02924
1.97879
1.95713
1.94431
1.94039
1.93841
1.93686
1.93549
1.93434
1.93331
1.93241
1.9316
1.93088
1.93023
1.92966
1.92915
1.92871
1.92833
1.92802
1.92777
1.92755
1.92739
1.92728
1.92722
1.88551
1.88549
1.88551
1.88553
1.88557
1.88563
1.88569
1.88575
1.88583
1.88591
1.88601
1.88611
1.88622
1.88634
1.88651
1.88675
1.88709
1.88766
1.88854
1.89048
1.89368
1.90176
1.94569
2.18028
3.78766
5.09424
5.32461
5.70823
7.75987
15.6616
30.1849
40.403
34.8809
19.263
3.2506
2.18345
1.99769
1.94967
1.92875
1.91604
1.91204
1.91004
1.90842
1.907
1.90579
1.90471
1.90376
1.90292
1.90216
1.90148
1.90088
1.90035
1.89988
1.89948
1.89914
1.89887
1.89866
1.89849
1.89838
1.89831
1.85727
1.85725
1.85726
1.85729
1.85732
1.85736
1.85741
1.85747
1.85753
1.8576
1.85767
1.85775
1.85782
1.85792
1.85807
1.85827
1.85857
1.85909
1.85995
1.86184
1.86511
1.87314
1.92057
2.17606
3.79084
5.06858
5.13742
5.42355
7.13741
14.1406
28.0168
36.4052
31.1323
18.1798
3.17684
2.14607
1.96729
1.92138
1.90117
1.88858
1.8845
1.88247
1.88077
1.87931
1.87804
1.87692
1.87593
1.87505
1.87426
1.87355
1.87292
1.87237
1.87188
1.87146
1.8711
1.87081
1.87059
1.87042
1.87031
1.87024
1.82988
1.82986
1.82987
1.82989
1.82991
1.82995
1.82999
1.83003
1.83008
1.83014
1.83019
1.83024
1.83029
1.83037
1.83049
1.83066
1.83093
1.83141
1.83226
1.83412
1.8375
1.84577
1.90168
2.19514
3.81744
4.98966
4.95791
5.32336
7.49065
16.0938
28.1079
32.7645
27.6237
13.1138
2.89823
2.10894
1.93823
1.89393
1.87428
1.86186
1.8577
1.85565
1.85387
1.85237
1.85105
1.8499
1.84887
1.84796
1.84714
1.84641
1.84575
1.84518
1.84467
1.84424
1.84387
1.84357
1.84333
1.84316
1.84305
1.84298
1.80331
1.80328
1.80329
1.8033
1.80332
1.80335
1.80338
1.80342
1.80345
1.80349
1.80353
1.80355
1.80359
1.80366
1.80375
1.80389
1.80413
1.80458
1.80544
1.80727
1.81079
1.8205
1.90589
2.62451
3.84219
4.84081
4.82769
5.25687
7.86818
17.1727
27.2997
30.3681
25.5861
11.9384
2.83228
2.07147
1.89428
1.86715
1.84803
1.83583
1.8316
1.82953
1.82768
1.82616
1.82479
1.82361
1.82255
1.82161
1.82076
1.82001
1.81934
1.81874
1.81823
1.81778
1.8174
1.81709
1.81684
1.81666
1.81655
1.81647
1.77752
1.77748
1.77748
1.7775
1.77751
1.77754
1.77756
1.77759
1.77762
1.77764
1.77766
1.77767
1.77769
1.77774
1.77781
1.77793
1.77816
1.77858
1.77945
1.78128
1.785
1.7983
1.92195
2.6858
4.11314
4.6444
4.82817
6.11633
11.1765
20.9538
26.968
25.8508
21.033
7.57815
2.54489
1.95499
1.86956
1.84113
1.82236
1.81042
1.80617
1.80409
1.80218
1.80063
1.79922
1.79802
1.79693
1.79596
1.7951
1.79433
1.79364
1.79303
1.7925
1.79205
1.79166
1.79134
1.79108
1.79089
1.79078
1.7907
1.75247
1.75243
1.75243
1.75244
1.75246
1.75247
1.75249
1.75251
1.75253
1.75254
1.75254
1.75255
1.75257
1.7526
1.75265
1.75275
1.75297
1.75337
1.75427
1.75611
1.76023
1.77992
1.94616
2.74212
4.0447
4.54763
4.89173
6.64012
12.2829
21.3452
26.0936
24.3192
19.7519
7.17626
2.48493
1.92306
1.84582
1.81583
1.79724
1.78561
1.78136
1.77927
1.77732
1.77575
1.77432
1.77309
1.77198
1.771
1.77012
1.76933
1.76863
1.76801
1.76747
1.767
1.76661
1.76628
1.76602
1.76583
1.76571
1.76563
1.72814
1.7281
1.7281
1.72811
1.72812
1.72813
1.72815
1.72816
1.72817
1.72817
1.72816
1.72817
1.72818
1.7282
1.72824
1.72833
1.72854
1.72894
1.72987
1.73174
1.73663
1.76575
1.97614
2.79066
3.98042
4.48466
5.03301
7.28013
13.3526
21.4629
25.2635
22.8626
18.567
6.80462
2.42567
1.89178
1.82284
1.79114
1.77266
1.76135
1.75714
1.75506
1.75307
1.7515
1.75004
1.7488
1.74768
1.74668
1.74578
1.74499
1.74428
1.74365
1.7431
1.74263
1.74223
1.7419
1.74163
1.74144
1.74132
1.74123
1.7045
1.70445
1.70445
1.70446
1.70447
1.70448
1.7045
1.7045
1.70451
1.7045
1.70449
1.70449
1.7045
1.70451
1.70455
1.70463
1.70484
1.70525
1.70622
1.70817
1.71439
1.75587
2.00959
2.83093
3.9241
4.46098
5.25871
8.02269
14.3361
21.3878
24.3647
21.5013
17.4731
6.46133
2.36767
1.86138
1.80028
1.76697
1.74861
1.73763
1.73349
1.73142
1.72942
1.72784
1.72637
1.72512
1.72398
1.72298
1.72208
1.72127
1.72055
1.71992
1.71936
1.71889
1.71848
1.71815
1.71789
1.71769
1.71756
1.71747
1.68153
1.68147
1.68147
1.68148
1.68149
1.6815
1.68151
1.68152
1.68152
1.6815
1.6815
1.6815
1.6815
1.68151
1.68155
1.68163
1.68184
1.68227
1.68329
1.6854
1.69368
1.75016
2.04455
2.86357
3.87915
4.48108
5.573
8.84417
15.1828
21.1431
23.4366
20.2347
16.4635
6.14403
2.31136
1.83197
1.77795
1.74326
1.72506
1.71444
1.71039
1.70833
1.70633
1.70476
1.70328
1.70203
1.70088
1.69987
1.69896
1.69815
1.69743
1.6968
1.69624
1.69576
1.69535
1.69502
1.69475
1.69455
1.69442
1.69432
1.65918
1.65912