/*--------------------------------*- C++ -*----------------------------------*\
  =========                 |
  \\      /  F ield         | OpenFOAM: The Open Source CFD Toolbox
   \\    /   O peration     | Website:  https://openfoam.org
    \\  /    A nd           | Version:  12
     \\/     M anipulation  |
\*---------------------------------------------------------------------------*/
FoamFile
{
    format      ascii;
    class       volScalarField;
    location    "240";
    object      p;
}
// * * * * * * * * * * * * * * * * * * * * * * * * * * * * * * * * * * * * * //

dimensions      [0 2 -2 0 0 0 0];

internalField   nonuniform List<scalar> 
16227
(
0.0589901
0.0591341
0.0594216
0.0598527
0.0604271
0.0611442
0.0620035
0.0630038
0.0641434
0.0654201
0.0668311
0.0683728
0.0700404
0.0718286
0.0737305
0.075738
0.0778416
0.0800305
0.0822922
0.0846131
0.0869782
0.0893711
0.0917746
0.0941705
0.0965404
0.0988657
0.101128
0.10331
0.105396
0.107369
0.109218
0.110931
0.112499
0.113916
0.115179
0.116286
0.11724
0.118043
0.118701
0.119222
0.119616
0.119892
0.120061
0.120136
0.120129
0.120052
0.119918
0.119738
0.119525
0.119289
0.11904
0.118789
0.118544
0.118312
0.1181
0.117915
0.117761
0.117641
0.11756
0.117519
0.0588843
0.0590283
0.0593159
0.0597473
0.0603221
0.0610398
0.0618999
0.0629014
0.0640425
0.0653212
0.0667348
0.0682798
0.0699517
0.071745
0.0736528
0.0756673
0.0777789
0.0799768
0.0822486
0.0845806
0.0869577
0.0893634
0.0917801
0.0941896
0.0965732
0.098912
0.101187
0.103382
0.105478
0.107461
0.109318
0.111037
0.11261
0.11403
0.115293
0.1164
0.11735
0.118149
0.118802
0.119316
0.119702
0.11997
0.12013
0.120196
0.12018
0.120094
0.119951
0.119762
0.119541
0.119298
0.119042
0.118784
0.118533
0.118296
0.11808
0.117891
0.117734
0.117613
0.117531
0.117489
0.0586522
0.0587963
0.0590842
0.0595161
0.0600918
0.0608107
0.0616727
0.0626766
0.0638211
0.0651043
0.0665235
0.0680759
0.0697571
0.0715614
0.0734822
0.075512
0.0776412
0.0798591
0.082153
0.0845095
0.0869131
0.0893468
0.0917929
0.0942325
0.0966462
0.0990147
0.101319
0.10354
0.10566
0.107665
0.10954
0.111273
0.112855
0.114281
0.115546
0.11665
0.117594
0.118384
0.119024
0.119523
0.119892
0.120141
0.120282
0.120328
0.120291
0.120185
0.120022
0.119815
0.119576
0.119315
0.119044
0.118773
0.118509
0.11826
0.118035
0.117838
0.117675
0.117549
0.117463
0.11742
0.0582659
0.0584102
0.0586986
0.0591313
0.0597082
0.0604292
0.0612939
0.0623019
0.0634518
0.0647422
0.0661709
0.0677355
0.0694316
0.071254
0.0731966
0.0752518
0.0774104
0.0796615
0.0819924
0.0843898
0.0868381
0.0893193
0.0918148
0.094305
0.0967698
0.0991884
0.101541
0.103807
0.105968
0.108009
0.109914
0.111671
0.11327
0.114705
0.115972
0.117071
0.118005
0.118778
0.119396
0.11987
0.12021
0.120427
0.120535
0.120547
0.120476
0.120335
0.120139
0.1199
0.119631
0.119342
0.119045
0.118749
0.118464
0.118197
0.117956
0.117746
0.117572
0.117438
0.117347
0.117301
0.0577293
0.0578737
0.0581626
0.0585963
0.0591748
0.0598982
0.0607665
0.0617795
0.0629366
0.0642366
0.0656779
0.0672587
0.0689751
0.0708223
0.0727946
0.0748849
0.0770839
0.0793808
0.0817632
0.0842183
0.0867294
0.0892773
0.0918425
0.0944044
0.0969412
0.0994309
0.101852
0.104182
0.106402
0.108494
0.110442
0.112231
0.113853
0.115301
0.116572
0.117664
0.118582
0.119331
0.119919
0.120356
0.120655
0.120828
0.120888
0.120852
0.120732
0.120544
0.120301
0.120017
0.119706
0.119378
0.119044
0.118715
0.1184
0.118108
0.117845
0.117616
0.117427
0.117282
0.117184
0.117134
0.0570483
0.0571929
0.0574822
0.0579167
0.0584967
0.0592226
0.0600948
0.0611136
0.0622789
0.0635903
0.0650467
0.0666469
0.0683878
0.0702658
0.0722751
0.0744092
0.0766592
0.0790139
0.0814624
0.0839917
0.0865833
0.0892171
0.0918723
0.0945271
0.0971579
0.0997403
0.10225
0.104664
0.10696
0.109119
0.111123
0.112955
0.114607
0.116071
0.117345
0.118429
0.119326
0.120043
0.120591
0.12098
0.121225
0.121339
0.121339
0.12124
0.121058
0.120808
0.120505
0.120164
0.119799
0.11942
0.11904
0.118669
0.118317
0.117992
0.117701
0.117449
0.117242
0.117083
0.116975
0.116921
0.0562238
0.0563684
0.0566579
0.0570929
0.057674
0.0584022
0.0592781
0.0603028
0.0614769
0.0628007
0.0642738
0.0658959
0.0676657
0.0695795
0.0716326
0.073819
0.0761299
0.078555
0.0810844
0.0837044
0.0863951
0.0891352
0.0919026
0.0946734
0.0974217
0.10012
0.102743
0.105262
0.107654
0.109896
0.111969
0.113855
0.115544
0.117028
0.118305
0.119375
0.120245
0.120921
0.121417
0.121746
0.121923
0.121964
0.121888
0.121711
0.12145
0.121124
0.120748
0.120337
0.119904
0.119464
0.119027
0.118606
0.118209
0.117844
0.117519
0.117239
0.117009
0.116833
0.116715
0.116655
0.0552549
0.0553992
0.0556884
0.0561233
0.0567049
0.0574345
0.0583135
0.0593435
0.0605261
0.0618625
0.0633534
0.0649993
0.0668007
0.0687545
0.0708578
0.0731043
0.075486
0.0779947
0.0806203
0.0833481
0.0861578
0.0890264
0.0919301
0.0948426
0.0977348
0.100576
0.103337
0.105986
0.108496
0.110841
0.112999
0.11495
0.116682
0.118189
0.119468
0.12052
0.121354
0.121979
0.12241
0.122662
0.122755
0.122706
0.122535
0.122263
0.121909
0.12149
0.121025
0.120529
0.120017
0.119503
0.119
0.118518
0.118068
0.117657
0.117292
0.116979
0.116722
0.116527
0.116395
0.116328
0.0541411
0.0542849
0.054573
0.0550068
0.0555875
0.0563171
0.0571977
0.0582316
0.0594215
0.0607698
0.0622784
0.0639489
0.0657829
0.067781
0.0699397
0.0722536
0.0747156
0.0773203
0.0800571
0.0829112
0.0858613
0.0888826
0.0919493
0.0950321
0.0980982
0.101113
0.104041
0.106848
0.109501
0.111971
0.114231
0.11626
0.118044
0.119576
0.120855
0.121883
0.12267
0.12323
0.12358
0.123738
0.123727
0.123569
0.123285
0.122899
0.122431
0.121903
0.121332
0.120737
0.120132
0.119532
0.118951
0.1184
0.117888
0.117422
0.117012
0.116661
0.116374
0.116156
0.116009
0.115935
0.0528827
0.0530254
0.0533116
0.0537428
0.0543209
0.0550483
0.0559282
0.0569636
0.0581585
0.0595166
0.0610414
0.0627359
0.0646034
0.0666474
0.0688649
0.0712519
0.0738035
0.0765164
0.0793799
0.0823794
0.0854924
0.0886928
0.0919523
0.0952378
0.0985119
0.101735
0.104865
0.107862
0.110687
0.113307
0.115689
0.11781
0.119654
0.121214
0.122488
0.123484
0.124212
0.12469
0.12494
0.124983
0.124847
0.124556
0.124138
0.123616
0.123015
0.122358
0.121664
0.120953
0.120241
0.119543
0.118873
0.118243
0.11766
0.117134
0.116672
0.116278
0.115958
0.115715
0.115551
0.115469
0.0514806
0.0516215
0.0519045
0.0523312
0.0529042
0.0536266
0.0545023
0.0555358
0.056732
0.0580964
0.0596343
0.0613507
0.0632505
0.0653397
0.0676174
0.0700822
0.0727323
0.0755652
0.0785706
0.0817349
0.0850351
0.0884439
0.0919294
0.0954544
0.0989758
0.102447
0.105819
0.109045
0.112076
0.114875
0.117403
0.119631
0.121544
0.123132
0.124397
0.125348
0.126001
0.126377
0.126504
0.126408
0.126121
0.125672
0.125093
0.124412
0.123656
0.122849
0.122015
0.121171
0.120336
0.119527
0.118758
0.118038
0.117377
0.116783
0.116263
0.115822
0.115465
0.115194
0.115012
0.11492
0.0499361
0.0500745
0.0503525
0.0507724
0.051337
0.0520505
0.0529177
0.0539443
0.0551368
0.0565023
0.0580481
0.0597818
0.0617102
0.0638415
0.066181
0.0687265
0.0714812
0.0744439
0.0776062
0.0809551
0.0844685
0.0881182
0.0918674
0.0956741
0.0994887
0.103256
0.106918
0.110417
0.113696
0.116708
0.119408
0.121762
0.123751
0.125368
0.126615
0.127507
0.128063
0.128313
0.128288
0.128023
0.127555
0.126919
0.126151
0.125284
0.124348
0.123369
0.122373
0.121378
0.120407
0.119474
0.118593
0.117774
0.117027
0.116359
0.115776
0.115284
0.114885
0.114584
0.114382
0.11428
0.0482514
0.0483862
0.0486573
0.0490673
0.0496197
0.0503194
0.0511724
0.0521858
0.0533676
0.0547269
0.0562734
0.0580172
0.0599683
0.0621372
0.0645346
0.067161
0.070024
0.0731249
0.0764574
0.0800106
0.0837664
0.0876927
0.0917482
0.0958855
0.100047
0.104168
0.108177
0.112003
0.11558
0.118846
0.121749
0.124248
0.126323
0.127966
0.129184
0.129996
0.13043
0.130521
0.13031
0.129841
0.129156
0.128298
0.127309
0.126226
0.125082
0.123907
0.122727
0.121564
0.120441
0.11937
0.118367
0.117439
0.116598
0.115849
0.115199
0.114651
0.114209
0.113875
0.113652
0.113539
0.0464298
0.0465599
0.0468216
0.0472181
0.0477535
0.0484334
0.0492651
0.0502572
0.0514193
0.0527629
0.0543
0.056044
0.0580082
0.0602065
0.0626535
0.065359
0.0683313
0.0715757
0.0750905
0.0788685
0.0828954
0.0871366
0.0915467
0.0960718
0.100645
0.105187
0.109613
0.113834
0.117767
0.121338
0.124481
0.127148
0.129317
0.130981
0.132153
0.132858
0.133135
0.133029
0.132591
0.131873
0.130929
0.129809
0.128562
0.127229
0.125848
0.12445
0.123064
0.121715
0.120423
0.119201
0.118064
0.117019
0.116077
0.115242
0.114519
0.113912
0.113424
0.113056
0.11281
0.112686
0.044476
0.0445999
0.0448494
0.0452281
0.0457407
0.0463938
0.0471957
0.0481565
0.0492879
0.0506035
0.0521182
0.0538488
0.0558128
0.058028
0.0605144
0.0632899
0.0663669
0.0697565
0.0734632
0.0774851
0.0818123
0.0864099
0.0912292
0.0962094
0.101271
0.10632
0.111248
0.115946
0.120309
0.124244
0.127671
0.130533
0.132802
0.134478
0.13558
0.136144
0.13622
0.135867
0.135149
0.134131
0.132878
0.13145
0.129902
0.128281
0.126629
0.12498
0.123366
0.121813
0.120335
0.118949
0.117668
0.116498
0.115448
0.114522
0.113723
0.113055
0.112518
0.112115
0.111845
0.11171
0.042396
0.0425121
0.0427461
0.0431021
0.0435853
0.0442033
0.0449653
0.0458832
0.0469703
0.0482428
0.0497187
0.0514184
0.053364
0.0555786
0.0580881
0.0609185
0.0640898
0.0676202
0.0715235
0.075805
0.0804612
0.0854595
0.0907506
0.0962651
0.101909
0.107567
0.113104
0.118382
0.123268
0.127643
0.131407
0.13449
0.136866
0.138538
0.139535
0.13991
0.139728
0.139066
0.138004
0.136623
0.135002
0.133211
0.131314
0.129364
0.127405
0.125477
0.123613
0.121834
0.120156
0.118594
0.117159
0.115858
0.114695
0.113674
0.112796
0.112064
0.111478
0.111038
0.110745
0.110598
0.0401976
0.0403041
0.0405191
0.0408467
0.0412932
0.0418665
0.0425772
0.0434382
0.0444652
0.0456764
0.0470933
0.04874
0.0506437
0.0528337
0.0553424
0.0582055
0.0614525
0.0651114
0.0692082
0.0737591
0.0787695
0.0842151
0.0900489
0.0961913
0.102532
0.108927
0.115209
0.121198
0.126722
0.13163
0.135794
0.139132
0.141615
0.143255
0.144101
0.144223
0.143711
0.142661
0.141176
0.139356
0.137296
0.13508
0.13278
0.130453
0.128151
0.125916
0.123777
0.121753
0.11986
0.118113
0.116517
0.115078
0.113799
0.11268
0.111723
0.110926
0.11029
0.109814
0.109497
0.109338
0.0378905
0.0379854
0.0381772
0.0384707
0.038872
0.0393901
0.0400363
0.0408248
0.0417731
0.0429018
0.0442353
0.045802
0.0476342
0.049768
0.0522436
0.0551076
0.0584009
0.0621649
0.066441
0.0712604
0.0766431
0.0825851
0.0890395
0.0959202
0.103097
0.110393
0.117592
0.12446
0.130772
0.13633
0.140972
0.144597
0.147179
0.148748
0.149375
0.149161
0.148223
0.146686
0.14468
0.142328
0.139747
0.137033
0.134268
0.131516
0.128834
0.126262
0.123824
0.121539
0.11942
0.117479
0.115717
0.114138
0.11274
0.111524
0.110487
0.109626
0.108941
0.108429
0.108088
0.107918
0.035486
0.0355672
0.0357318
0.0359844
0.0363318
0.0367831
0.0373504
0.038049
0.0388977
0.0399192
0.0411409
0.042595
0.0443194
0.0463571
0.0487571
0.0515782
0.054875
0.0587053
0.0631315
0.068206
0.0739708
0.0804491
0.0876048
0.0953531
0.103543
0.111949
0.120288
0.128254
0.135547
0.141904
0.147116
0.151062
0.153723
0.155155
0.155469
0.154807
0.153324
0.151175
0.148525
0.14553
0.142329
0.139034
0.135739
0.132513
0.129414
0.126475
0.123718
0.121157
0.118804
0.116664
0.114734
0.113013
0.111499
0.110186
0.109071
0.108149
0.107416
0.10687
0.106507
0.106325
0.0329979
0.0330632
0.033196
0.033401
0.033685
0.0340573
0.0345303
0.0351199
0.0358458
0.0367326
0.0378099
0.0391135
0.0406865
0.042579
0.0448493
0.0475688
0.0508091
0.0546482
0.0591737
0.0644676
0.0706046
0.0776427
0.0855785
0.0943452
0.103765
0.113551
0.123327
0.132683
0.141213
0.148565
0.154462
0.158759
0.161455
0.162653
0.162521
0.161262
0.159077
0.156159
0.152713
0.148937
0.145002
0.141036
0.137141
0.133391
0.129838
0.126505
0.123411
0.120566
0.117976
0.115635
0.113539
0.111681
0.110053
0.108648
0.10746
0.106479
0.105703
0.105124
0.104741
0.104549
0.0304418
0.0304891
0.0305857
0.0307362
0.0309472
0.0312278
0.0315903
0.0320507
0.032629
0.0333508
0.0342474
0.0353573
0.0367279
0.0384164
0.0404895
0.043032
0.0461349
0.0499001
0.0544445
0.0598887
0.0663516
0.0739432
0.0827334
0.0926892
0.10364
0.11516
0.126762
0.137893
0.147997
0.156592
0.163308
0.167971
0.170616
0.171425
0.17066
0.168609
0.165546
0.161658
0.157222
0.1525
0.147699
0.142964
0.138402
0.134081
0.130038
0.126292
0.122853
0.119722
0.116895
0.114359
0.112103
0.110114
0.108381
0.106891
0.105635
0.104603
0.103787
0.10318
0.102779
0.102578
0.0278359
0.027863
0.0279191
0.0280083
0.0281368
0.0283131
0.0285488
0.0288594
0.0292642
0.0297889
0.0304653
0.0313337
0.0324441
0.0338594
0.0356545
0.0379257
0.0407869
0.0443644
0.0488084
0.0542882
0.060982
0.0690764
0.0787452
0.0900511
0.102864
0.116611
0.130582
0.144034
0.156192
0.16638
0.174093
0.179122
0.181572
0.18176
0.180099
0.176995
0.172816
0.167686
0.162012
0.156145
0.150332
0.144727
0.13943
0.134493
0.129937
0.125769
0.121984
0.118574
0.115519
0.112798
0.110394
0.108287
0.10646
0.104897
0.103583
0.102506
0.101657
0.101027
0.100611
0.100403
0.0252003
0.0252053
0.0252169
0.0252386
0.0252756
0.0253356
0.0254288
0.0255691
0.0257746
0.0260693
0.0264843
0.0270595
0.0278462
0.0289103
0.0303333
0.032221
0.0347078
0.0379459
0.0421224
0.0474628
0.0542182
0.0626727
0.0731635
0.0859495
0.101303
0.117882
0.134896
0.151362
0.166187
0.178399
0.187291
0.192614
0.194602
0.193797
0.190857
0.186373
0.180963
0.174228
0.166996
0.159747
0.152766
0.146193
0.140103
0.13452
0.129441
0.124855
0.120739
0.117066
0.113801
0.110916
0.108383
0.106175
0.10427
0.102647
0.101287
0.100177
0.0993033
0.0986563
0.0982287
0.0980157
0.0225574
0.0225386
0.0225022
0.022451
0.0223888
0.0223217
0.0222579
0.022209
0.0221903
0.0222231
0.0223352
0.0225643
0.0229598
0.0235876
0.0245323
0.0259053
0.0278556
0.0305616
0.0342483
0.0391991
0.0457452
0.0542725
0.0652919
0.0795125
0.0932701
0.112717
0.132962
0.153026
0.171483
0.186927
0.198276
0.205022
0.207434
0.206277
0.202507
0.197059
0.190199
0.181259
0.172009
0.163093
0.154799
0.147183
0.140265
0.134031
0.128444
0.123465
0.119047
0.115139
0.111695
0.108674
0.106038
0.103753
0.101791
0.100126
0.0987365
0.0976047
0.0967162
0.0960593
0.0956258
0.09541
0.0199312
0.0198874
0.0198005
0.019672
0.0195043
0.0193014
0.0190686
0.0188141
0.0185492
0.0182905
0.0180607
0.0178919
0.0178283
0.017931
0.0182821
0.0189933
0.0202189
0.0221588
0.0250717
0.0292949
0.0352379
0.0433589
0.0542163
0.0679279
0.0874213
0.110547
0.136357
0.162403
0.186421
0.206201
0.220017
0.22717
0.228303
0.22485
0.218445
0.210186
0.200992
0.188726
0.176692
0.165871
0.156164
0.147467
0.13973
0.132877
0.126827
0.121506
0.116832
0.112736
0.109155
0.106036
0.103331
0.101
0.0990063
0.0973213
0.0959199
0.0947814
0.0938897
0.0932317
0.0927979
0.0925821
0.0173474
0.0172778
0.0171387
0.0169303
0.0166532
0.0163084
0.0158978
0.0154253
0.0148968
0.0143221
0.0137164
0.0131029
0.012516
0.0120062
0.0116462
0.0115389
0.0118333
0.0127357
0.0145309
0.0175994
0.0224476
0.0296478
0.0399245
0.0556317
0.0772664
0.101321
0.134258
0.167486
0.198794
0.224828
0.242735
0.251207
0.251261
0.245213
0.23575
0.225821
0.21082
0.195461
0.180295
0.167609
0.156499
0.146767
0.138286
0.130898
0.12447
0.118882
0.114022
0.1098
0.106139
0.102971
0.10024
0.0978968
0.0959026
0.0942232
0.0928309
0.0917027
0.0908209
0.0901713
0.0897435
0.0895309
0.0148321
0.0147367
0.0145451
0.0142562
0.0138681
0.013379
0.0127865
0.012089
0.0112858
0.0103782
0.00937127
0.00827568
0.00711094
0.00591047
0.0047278
0.00364571
0.00279371
0.00236435
0.0026437
0.00403772
0.00716237
0.0127839
0.0216596
0.0389892
0.0626162
0.0908865
0.133488
0.178668
0.22246
0.258798
0.282291
0.290822
0.28674
0.274446
0.258401
0.241789
0.220832
0.199806
0.182
0.167726
0.15537
0.144772
0.135705
0.127928
0.121248
0.115501
0.11055
0.106285
0.102611
0.0994527
0.0967442
0.0944319
0.0924718
0.0908267
0.0894669
0.0883678
0.0875103
0.0868795
0.0864646
0.0862587
0.0124118
0.0122912
0.0120483
0.0116804
0.0111833
0.0105516
0.00977825
0.00885562
0.00777508
0.00652811
0.00510683
0.00350612
0.00172559
-0.000225672
-0.00232372
-0.00452061
-0.0067267
-0.00878979
-0.0104592
-0.011353
-0.0107979
-0.00781986
-0.00167557
0.0164519
0.0413606
0.0746403
0.128456
0.189809
0.252378
0.304715
0.335973
0.342572
0.33011
0.307184
0.28105
0.254698
0.227915
0.201208
0.181169
0.165632
0.152346
0.141179
0.131778
0.123818
0.117054
0.111288
0.106363
0.102151
0.098547
0.0954652
0.0928353
0.0905999
0.0887118
0.0871322
0.0858301
0.0847799
0.0839621
0.0833613
0.0829667
0.0827708
0.0101124
0.00996791
0.00967648
0.00923382
0.00863311
0.00786521
0.00691847
0.00577849
0.00442823
0.00284799
0.0010153
-0.00109362
-0.00350362
-0.00623701
-0.00930959
-0.012725
-0.0164583
-0.0204331
-0.0244843
-0.0283401
-0.0314003
-0.0326126
-0.0313827
-0.0139894
0.00931429
0.0472255
0.113372
0.197439
0.29048
0.370447
0.413106
0.412324
0.382667
0.34181
0.301527
0.263463
0.230712
0.19867
0.177066
0.160787
0.147062
0.135742
0.126336
0.118449
0.111807
0.10619
0.101427
0.0973794
0.0939347
0.0910033
0.0885126
0.0864034
0.0846277
0.0831463
0.081928
0.0809475
0.0801852
0.0796259
0.0792588
0.0790768
0.0079583
0.00779217
0.00745661
0.00694583
0.00625054
0.00535813
0.00425196
0.00291133
0.00131035
-0.000582296
-0.00280417
-0.00539983
-0.00842126
-0.0119277
-0.0159842
-0.02066
-0.0260209
-0.0321108
-0.0389105
-0.0463625
-0.054129
-0.0613631
-0.0680549
-0.0544376
-0.0382171
0.000383798
0.0766781
0.190725
0.336527
0.470673
0.531443
0.508154
0.443189
0.373878
0.315254
0.264309
0.226934
0.190894
0.168902
0.152733
0.139255
0.128298
0.119269
0.111752
0.105467
0.100187
0.0957349
0.0919697
0.0887797
0.086076
0.0837869
0.0818545
0.0802322
0.0788821
0.077774
0.0768838
0.0761927
0.0756862
0.0753541
0.0751895
0.00597165
0.00578685
0.00541323
0.00484354
0.00406639
0.00306597
0.00182127
0.000305494
-0.00151524
-0.00368324
-0.00625113
-0.00928364
-0.0128609
-0.0170813
-0.022064
-0.0279538
-0.0349258
-0.0431837
-0.0529197
-0.064399
-0.0777394
-0.0926787
-0.110574
-0.105468
-0.105333
-0.0765975
-0.00338851
0.139357
0.377585
0.636626
0.727815
0.635755
0.500198
0.391208
0.313984
0.253022
0.214174
0.176856
0.156155
0.141217
0.128806
0.118781
0.11055
0.103726
0.0980485
0.0932992
0.0893088
0.0859461
0.0831065
0.0807071
0.0786813
0.0769754
0.0755464
0.0743596
0.0733872
0.0726072
0.0720024
0.0715597
0.0712696
0.0711259
0.00417161
0.00397183
0.00356758
0.00295052
0.0021075
0.0010202
-0.000335976
-0.0019928
-0.00399083
-0.00638168
-0.00923079
-0.012621
-0.0166579
-0.021476
-0.0272477
-0.0341937
-0.0426021
-0.0528554
-0.0653982
-0.0809093
-0.100113
-0.123639
-0.155084
-0.164176
-0.191613
-0.192234
-0.160363
-0.0352015
0.327323
0.936385
1.07917
0.766131
0.512991
0.370728
0.287469
0.225624
0.190819
0.156416
0.13886
0.126307
0.115795
0.107274
0.100262
0.0944512
0.0896222
0.0855884
0.0822044
0.0793581
0.0769592
0.0749362
0.0732312
0.0717981
0.0705997
0.0696057
0.0687927
0.0681412
0.0676366
0.0672675
0.0670259
0.0669063
0.00257364
0.00236308
0.0019368
0.00128571
0.000395535
-0.000753768
-0.00218916
-0.00394577
-0.00606885
-0.00861635
-0.0116629
-0.0153045
-0.0196656
-0.0249091
-0.0312498
-0.0389723
-0.048461
-0.0602613
-0.075056
-0.0939524
-0.118318
-0.149726
-0.194332
-0.221868
-0.284812
-0.33859
-0.412986
-0.487093
-0.32921
1.25138
1.64751
0.660578
0.392714
0.287229
0.22827
0.182105
0.157853
0.130666
0.117745
0.108499
0.100575
0.0940368
0.0886097
0.084087
0.0803167
0.0771598
0.0745091
0.0722793
0.0704006
0.0688172
0.0674838
0.0663641
0.0654287
0.0646538
0.0640205
0.0635136
0.0631214
0.0628347
0.0626473
0.0625546
0.00118888
0.000972106
0.000533159
-0.000137365
-0.00105421
-0.00223809
-0.00371689
-0.00552709
-0.00771587
-0.0103439
-0.0134898
-0.0172557
-0.0217753
-0.027226
-0.0338463
-0.0419583
-0.052003
-0.0646336
-0.0806854
-0.1016
-0.129212
-0.165737
-0.219167
-0.264635
-0.358169
-0.471018
-0.680176
-1.13808
-2.27239
-0.266696
0.130463
0.150036
0.1448
0.12928
0.118996
0.101758
0.0941719
0.0886694
0.0837297
0.0794814
0.0758956
0.0728627
0.0703085
0.0681545
0.0663372
0.064804
0.0635092
0.0624165
0.0614957
0.0607224
0.0600766
0.0595419
0.0591054
0.0587562
0.0584864
0.0582893
0.0581607
0.0580973
2.37898e-05
-0.000194461
-0.000636418
-0.0013113
-0.00223359
-0.00342355
-0.00490846
-0.00672391
-0.00891598
-0.0115439
-0.0146844
-0.0184372
-0.0229335
-0.0283475
-0.0349155
-0.0429599
-0.0529206
-0.0654722
-0.0814519
-0.102433
-0.130342
-0.167505
-0.222027
-0.279197
-0.384593
-0.529379
-0.785883
-1.34258
-2.86377
-3.17018
0.911324
-0.056103
0.011942
0.0594532
0.0783909
0.0800684
0.0723196
0.069777
0.0678681
0.0659763
0.0641212
0.0625
0.0610643
0.0598199
0.0587489
0.0578312
0.0570481
0.0563809
0.0558143
0.0553351
0.0549315
0.0545941
0.0543147
0.0540869
0.053905
0.0537648
0.0536625
0.0535961
0.0535637
-0.000919979
-0.00113507
-0.00157054
-0.00223501
-0.00314193
-0.00431009
-0.00576462
-0.00753813
-0.00967258
-0.0122216
-0.015254
-0.0188586
-0.0231515
-0.0282853
-0.0344666
-0.0419768
-0.0511896
-0.0627042
-0.0771813
-0.0960874
-0.120982
-0.153881
-0.200891
-0.260445
-0.356638
-0.494455
-0.699096
-1.04235
-1.51174
-1.68469
-1.12393
-0.844759
-0.288912
-0.0853923
-0.00275347
0.0386356
0.0456193
0.0441146
0.045826
0.0469893
0.0479808
0.0484642
0.048815
0.0489969
0.0490932
0.0491369
0.0491481
0.0491402
0.0491218
0.0490994
0.0490765
0.0490551
0.0490363
0.0490207
0.0490083
0.0489989
0.0489923
0.0489878
0.0489853
0.0489849
-0.00164554
-0.00185314
-0.00227329
-0.0029136
-0.0037859
-0.00490656
-0.00629731
-0.00798599
-0.0100079
-0.0124073
-0.0152401
-0.018577
-0.0225082
-0.0271492
-0.0326526
-0.0392231
-0.0471122
-0.0567638
-0.0685079
-0.0835137
-0.102576
-0.127422
-0.16021
-0.213694
-0.287471
-0.396763
-0.537608
-0.724747
-0.942323
-1.07882
-0.730111
-0.474236
-0.211345
-0.0895553
-0.029319
0.00900475
0.0156798
0.0171966
0.022735
0.02652
0.0302176
0.0329223
0.0351835
0.0369416
0.0383594
0.039508
0.040442
0.0412072
0.0418374
0.04236
0.0427948
0.0431569
0.0434584
0.0437081
0.0439128
0.0440771
0.0442052
0.0442992
0.0443613
0.0443929
-0.00216041
-0.00235671
-0.00275378
-0.00335789
-0.00417886
-0.0052299
-0.00652851
-0.00809637
-0.00996037
-0.0121532
-0.0147143
-0.0176913
-0.0211418
-0.0251343
-0.029752
-0.0351012
-0.0412737
-0.0485164
-0.0567418
-0.0667345
-0.0782287
-0.0930184
-0.107901
-0.149565
-0.196778
-0.273704
-0.366187
-0.485265
-0.584816
-0.61326
-0.306758
0.0416741
0.0310172
-0.056072
-0.0408713
-0.0217189
-0.013653
-0.00948782
0.000311738
0.00664669
0.0130113
0.0178262
0.0219054
0.0251571
0.0278379
0.0300444
0.0318644
0.0333745
0.0346323
0.0356838
0.0365644
0.0373012
0.0379163
0.0384262
0.0388441
0.0391794
0.0394402
0.0396314
0.0397572
0.0398205
-0.00247605
-0.00265787
-0.00302541
-0.00358349
-0.00433959
-0.00530355
-0.00648798
-0.00790795
-0.00958115
-0.0115276
-0.0137693
-0.0163295
-0.0192307
-0.0224916
-0.0261231
-0.0301273
-0.0344293
-0.0390884
-0.0435843
-0.0483392
-0.0518028
-0.0562789
-0.0526009
-0.078822
-0.099397
-0.147753
-0.224388
-0.320336
-0.441233
-0.443193
-0.327065
-0.106295
-0.0564875
-0.0713629
-0.0691041
-0.06301
-0.0458867
-0.0365413
-0.021498
-0.0124105
-0.00333168
0.00347414
0.00925464
0.0138841
0.0177335
0.0209166
0.0235575
0.0257612
0.0276062
0.0291554
0.0304573
0.03155
0.0324639
0.033223
0.0338453
0.0343451
0.0347336
0.0350186
0.035206
0.0352999
-0.00260712
-0.00277203
-0.00310514
-0.00360979
-0.0042911
-0.00515547
-0.00621075
-0.00746542
-0.00892833
-0.0106075
-0.0125083
-0.0146314
-0.0169676
-0.0194891
-0.0221434
-0.0248479
-0.0273871
-0.0296731
-0.0307833
-0.0309192
-0.0271519
-0.0226845
-0.00273015
-0.0116121
-0.0059473
-0.026356
-0.125593
-0.220933
-0.314962
-0.462637
-0.467004
-0.305083
-0.216475
-0.146619
-0.120405
-0.111944
-0.0801939
-0.0626647
-0.0419336
-0.030096
-0.0183895
-0.00980741
-0.00249744
0.0033493
0.00823478
0.0122798
0.0156505
0.0184755
0.0208508
0.0228529
0.0245408
0.0259617
0.0271529
0.0281439
0.0289576
0.0296118
0.0301207
0.0304942
0.0307398
0.0308626
-0.00257082
-0.0027171
-0.00301243
-0.00345874
-0.00405891
-0.00481623
-0.00573422
-0.00681554
-0.00806146
-0.00946979
-0.0110322
-0.0127309
-0.014532
-0.0163745
-0.0181665
-0.0197684
-0.0208619
-0.0212861
-0.0198143
-0.0166571
-0.00766138
0.00275368
0.0334728
0.0410334
0.0710863
0.0916808
0.0243802
-0.192111
-0.545835
-0.82469
-0.814423
-0.557535
-0.301881
-0.223505
-0.170629
-0.154712
-0.110721
-0.0854137
-0.0595865
-0.045565
-0.0316224
-0.0216492
-0.0130799
-0.00624206
-0.000495612
0.00426621
0.00825409
0.011611
0.0144457
0.0168446
0.0188746
0.0205889
0.0220297
0.0232311
0.0242193
0.0250149
0.0256345
0.0260896
0.0263888
0.0265384
-0.002386
-0.00251269
-0.00276834
-0.00315368
-0.00366965
-0.00431694
-0.00509549
-0.00600348
-0.00703635
-0.00818425
-0.00942911
-0.0107416
-0.012075
-0.0133532
-0.0144644
-0.015248
-0.0153405
-0.0146037
-0.0116486
-0.00696471
0.00439287
0.0165482
0.0499822
0.0684544
0.113496
0.176084
0.106169
-0.206123
-0.596758
-0.892518
-0.866222
-0.568875
-0.2896
-0.252163
-0.197382
-0.180489
-0.131987
-0.102097
-0.0730601
-0.0579847
-0.0425029
-0.0316961
-0.022242
-0.0147154
-0.00832901
-0.00302137
0.00145486
0.00524177
0.00845513
0.0111872
0.0135086
0.0154763
0.0171352
0.0185217
0.0196647
0.0205865
0.0213052
0.0218337
0.0221814
0.0223551
-0.00207254
-0.00217926
-0.0023946
-0.00271825
-0.00314972
-0.00368767
-0.00432942
-0.00506992
-0.00590088
-0.00680761
-0.00776766
-0.00874998
-0.00970433
-0.0105534
-0.0111874
-0.0114621
-0.0110302
-0.0098695
-0.00657795
-0.00214064
0.00861075
0.018312
0.0462683
0.0659856
0.103467
0.162556
0.0504749
-0.17466
-0.45204
-0.624473
-0.594705
-0.393602
-0.219014
-0.230537
-0.195831
-0.186637
-0.141822
-0.111467
-0.0815196
-0.0668221
-0.0507387
-0.0397547
-0.0298334
-0.0219602
-0.0151811
-0.00951649
-0.00469036
-0.000580805
0.00292618
0.00592373
0.00848259
0.0106605
0.0125031
0.0140475
0.0153237
0.0163549
0.0171601
0.0177527
0.0181429
0.0183379
-0.00165058
-0.00173745
-0.00191282
-0.00217566
-0.00252439
-0.00295628
-0.00346693
-0.00404934
-0.00469359
-0.00538359
-0.00609824
-0.00680925
-0.0074718
-0.00801927
-0.0083631
-0.00840346
-0.00785704
-0.00688111
-0.0041752
-0.00130441
0.00668577
0.0112233
0.0288571
0.0419422
0.0553682
0.0692809
-0.0265179
-0.122544
-0.29751
-0.374101
-0.348308
-0.221765
-0.158294
-0.18859
-0.175343
-0.176706
-0.140821
-0.113853
-0.0851748
-0.0720816
-0.0563415
-0.0458275
-0.0358513
-0.0279588
-0.0210259
-0.0151913
-0.0101545
-0.00583002
-0.00211295
0.00108299
0.00382511
0.00616949
0.00816053
0.00983445
0.0112212
0.0123442
0.0132224
0.0138695
0.0142961
0.0145092
-0.00114011
-0.00120762
-0.00134408
-0.00154797
-0.00181712
-0.00214785
-0.00253469
-0.00297
-0.00344407
-0.00394291
-0.0044488
-0.00493897
-0.00537995
-0.00572524
-0.00591991
-0.00592013
-0.00552889
-0.00510012
-0.00348605
-0.00277878
0.00158974
0.000402364
0.00725405
0.0109084
0.00173393
-0.0246907
-0.0895935
-0.0965185
-0.207915
-0.24616
-0.213175
-0.106419
-0.115936
-0.142964
-0.146697
-0.156172
-0.131319
-0.110513
-0.0849823
-0.0743049
-0.0596288
-0.0500977
-0.0404342
-0.0328007
-0.0259101
-0.0200617
-0.0149397
-0.0105012
-0.00665222
-0.00332047
-0.000446502
0.00202211
0.00412714
0.00590266
0.00737747
0.00857432
0.00951182
0.0102036
0.01066
0.010888
-0.000560579
-0.000609478
-0.000708626
-0.000856127
-0.0010494
-0.00128427
-0.00155489
-0.00185449
-0.00217442
-0.00250367
-0.00282866
-0.00313345
-0.00339947
-0.0036031
-0.00372708
-0.00377945
-0.00364522
-0.00384982
-0.00339277
-0.00474518
-0.00370759
-0.009509
-0.0111053
-0.01585
-0.0393503
-0.0871163
-0.134761
-0.128835
-0.195861
-0.216154
-0.151399
-0.0497005
-0.0774709
-0.0988111
-0.11461
-0.129337
-0.116186
-0.103229
-0.0822351
-0.074326
-0.0611755
-0.0528995
-0.0438182
-0.0366543
-0.0299455
-0.0241945
-0.0190781
-0.0146085
-0.010696
-0.00728453
-0.00432491
-0.00177066
0.000415789
0.00226608
0.00380718
0.00506067
0.00604412
0.00677078
0.00725053
0.00749031
6.93882e-05
3.82171e-05
-2.54456e-05
-0.00011949
-0.000240976
-0.000385389
-0.00054749
-0.000721524
-0.000900065
-0.00107465
-0.00123574
-0.00137488
-0.00148746
-0.00156966
-0.00163801
-0.00173658
-0.00181076
-0.002505
-0.0029269
-0.00575058
-0.00705906
-0.0156116
-0.0223995
-0.0328859
-0.062874
-0.117062
-0.159826
-0.191596
-0.255096
-0.280536
-0.172229
-0.0439834
-0.0396653
-0.0604355
-0.0803469
-0.0997497
-0.0985726
-0.0941863
-0.0783363
-0.0730878
-0.061659
-0.054674
-0.0462737
-0.0396716
-0.0332312
-0.0276657
-0.0226233
-0.0181814
-0.0142601
-0.010816
-0.00781069
-0.00520505
-0.00296643
-0.0010659
0.000521068
0.00181455
0.00283116
0.00358322
0.00408018
0.00432861
0.000732078
0.000717649
0.000687526
0.000643956
0.000590134
0.000530485
0.000469691
0.000413043
0.000367318
0.000338963
0.00033385
0.000354481
0.00039549
0.000448983
0.000473405
0.000409412
0.000280364
-0.000615226
-0.00144631
-0.0049245
-0.00735173
-0.0167445
-0.0256736
-0.0390511
-0.0695141
-0.119835
-0.158395
-0.230159
-0.321514
-0.351139
-0.215179
-0.0246837
-0.00141141
-0.02705
-0.0458515
-0.0718958
-0.0819867
-0.0857554
-0.074668
-0.0715387
-0.0617306
-0.055869
-0.0481171
-0.0420536
-0.0358955
-0.0305506
-0.0256306
-0.0212588
-0.0173659
-0.0139272
-0.01091
-0.0082824
-0.00601722
-0.0040886
-0.00247449
-0.00115622
-0.000118634
0.000649962
0.0011582
0.00141232
0.0014108
0.00141207
0.00141335
0.0014172
0.0014268
0.00144637
0.00148056
0.00153513
0.00161659
0.00173012
0.00187938
0.00206427
0.00227479
0.00250096
0.00268726
0.00278026
0.00279954
0.00204486
0.00132914
-0.00196452
-0.00433168
-0.0129548
-0.0216133
-0.0355801
-0.0626792
-0.10471
-0.137009
-0.213786
-0.316708
-0.387395
-0.272411
-0.00519005
0.0428144
0.0112045
-0.0165906
-0.051658
-0.0701758
-0.0801121
-0.0724283
-0.070509
-0.0619266
-0.0568529
-0.0496145
-0.0439851
-0.0380693
-0.0329343
-0.0281493
-0.0238771
-0.02004
-0.0166329
-0.0136316
-0.0110071
-0.00873784
-0.00680086
-0.00517631
-0.00384742
-0.00280001
-0.00202329
-0.00150927
-0.00125226
0.00208981
0.00210569
0.00213625
0.0021842
0.00225274
0.00234624
0.00247009
0.00263061
0.00283448
0.00308703
0.00339215
0.00375075
0.00415365
0.00459821
0.0050253
0.00540478
0.00577407
0.00548706
0.00537123
0.00299663
0.0016899
-0.00493546
-0.0115341
-0.024561
-0.0469549
-0.0801475
-0.102491