/*--------------------------------*- C++ -*----------------------------------*\
  =========                 |
  \\      /  F ield         | OpenFOAM: The Open Source CFD Toolbox
   \\    /   O peration     | Website:  https://openfoam.org
    \\  /    A nd           | Version:  12
     \\/     M anipulation  |
\*---------------------------------------------------------------------------*/
FoamFile
{
    format      ascii;
    class       surfaceScalarField;
    location    "240";
    object      phi;
}
// * * * * * * * * * * * * * * * * * * * * * * * * * * * * * * * * * * * * * //

dimensions      [0 3 -1 0 0 0 0];

internalField   nonuniform List<scalar> 
32440
(
-9.0746e-07
0.0399889
1.84939e-07
0.0399889
-2.72162e-06
0.0399909
-1.6261e-06
0.0399889
-4.52705e-06
0.0399909
-3.4237e-06
0.0399989
-4.31423e-06
0.0400109
-5.19637e-06
0.0400109
-4.06625e-06
0.0400109
-2.92045e-06
0.0400109
-1.75553e-06
0.0400108
-6.56712e-06
0.0400048
-7.35004e-06
0.0400008
-8.09737e-06
0.0400007
-8.8027e-06
0.0400007
-9.45911e-06
0.0400007
-1.00594e-05
0.0400006
-1.05964e-05
0.0400005
-1.10631e-05
0.0400005
-1.14523e-05
0.0400004
-1.17574e-05
0.0400003
-1.19725e-05
0.0400002
-1.20933e-05
0.0400001
-1.21169e-05
0.04
-1.20417e-05
0.0399999
-1.1868e-05
0.0399998
-1.15977e-05
0.0399997
-1.12342e-05
0.0399996
-1.23849e-05
0.0400012
-1.75168e-05
0.0400051
-1.84569e-05
0.0400009
-1.79966e-05
0.0399995
-1.72867e-05
0.0399993
-1.65389e-05
0.0399993
-1.47647e-05
0.0399982
-1.39754e-05
0.0399992
-1.31821e-05
0.0399992
-1.23949e-05
0.0399992
-1.16232e-05
0.0399992
-1.08749e-05
0.0399993
-1.01571e-05
0.0399993
-9.47526e-06
0.0399993
-8.8339e-06
0.0399994
-8.23621e-06
0.0399994
-7.68453e-06
0.0399994
-7.17988e-06
0.0399995
-6.72238e-06
0.0399995
-6.31125e-06
0.0399996
-5.945e-06
0.0399996
-5.62139e-06
0.0399997
-5.33799e-06
0.0399997
-7.09164e-06
0.0400018
-1.28788e-05
0.0400058
-6.69631e-06
0.0400058
-2.53994e-06
0.0400078
-2.40531e-06
0.0400099
-2.88256e-07
0.0399979
-1.84426e-07
0.0399879
-8.9347e-08
0.0399899
0.0399879
-2.26251e-06
0.0399912
-4.52696e-06
0.0399912
-6.78838e-06
0.0399932
-9.04467e-06
0.0399912
-9.29275e-06
0.0399911
-9.52957e-06
0.0399991
-9.75027e-06
0.0400111
-1.19483e-05
0.0400131
-1.2115e-05
0.040011
-1.02418e-05
0.040009
-8.31236e-06
0.0400089
-1.83147e-05
0.0400148
-2.42391e-05
0.0400067
-2.60649e-05
0.0400026
-2.77756e-05
0.0400024
-2.93497e-05
0.0400022
-3.07663e-05
0.040002
-3.20048e-05
0.0400018
-3.30455e-05
0.0400015
-3.38683e-05
0.0400012
-3.44517e-05
0.0400009
-3.47847e-05
0.0400005
-3.48541e-05
0.0400002
-3.46526e-05
0.0399998
-3.41776e-05
0.0399994
-3.32319e-05
0.0399989
-3.22242e-05
0.0399987
-3.13695e-05
0.0399988
-3.12845e-05
0.0400011
-3.53004e-05
0.0400091
-3.49263e-05
0.0400006
-3.29167e-05
0.0399975
-3.07984e-05
0.0399972
-2.86064e-05
0.0399971
-2.75762e-05
0.0399972
-2.5343e-05
0.039997
-2.31375e-05
0.039997
-2.09898e-05
0.0399971
-1.89269e-05
0.0399972
-1.6971e-05
0.0399973
-1.51409e-05
0.0399975
-1.34507e-05
0.0399976
-1.19113e-05
0.0399978
-1.05296e-05
0.039998
-7.30881e-06
0.0399962
-6.24911e-06
0.0399984
-5.34811e-06
0.0399986
-4.60123e-06
0.0399988
-4.00156e-06
0.039999
-3.54002e-06
0.0399992
-5.20717e-06
0.0400014
-8.99098e-06
0.0400055
-1.08809e-05
0.0400077
-8.86537e-06
0.0400038
-6.93054e-06
0.0400059
-5.06303e-06
0.040008
7.50603e-07
0.0399921
-1.47612e-06
0.0399901
2.70146e-07
0.0399882
0.0399882
-3.25308e-06
0.0399944
-6.50829e-06
0.0399944
-7.75951e-06
0.0399944
-1.10043e-05
0.0399944
-1.62382e-05
0.0399964
-1.34545e-05
0.0399963
-1.66508e-05
0.0400143
-1.78118e-05
0.0400142
-1.89293e-05
0.0400122
-1.99829e-05
0.04001
-2.09592e-05
0.0400099
-3.18236e-05
0.0400257
-3.65742e-05
0.0400115
-3.91779e-05
0.0400052
-4.15971e-05
0.0400048
-4.38063e-05
0.0400044
-4.57705e-05
0.040004
-4.74572e-05
0.0400035
-4.48351e-05
0.0399989
-4.98728e-05
0.0400063
-5.05372e-05
0.0400016
-5.08064e-05
0.0400008
-5.06628e-05
0.04
-5.00958e-05
0.0399993
-4.91024e-05
0.0399985
-4.76888e-05
0.0399975
-4.58705e-05
0.0399969
-4.36701e-05
0.0399966
-4.27267e-05
0.0400001
-4.55654e-05
0.040012
-4.39793e-05
0.039999
-4.08776e-05
0.0399944
-3.74333e-05
0.0399937
-3.39054e-05
0.0399935
-2.93527e-05
0.0399926
-2.58304e-05
0.0399935
-2.23936e-05
0.0399936
-1.90894e-05
0.0399938
-1.59582e-05
0.039994
-1.30354e-05
0.0399944
-1.03491e-05
0.0399948
-7.92074e-06
0.0399952
-5.76524e-06
0.0399957
-3.89131e-06
0.0399961
-4.30137e-06
0.0399966
-2.99354e-06
0.0399971
-1.96009e-06
0.0399976
8.08729e-07
0.0399961
1.32703e-06
0.0399985
-3.88752e-07
0.0400009
-2.32044e-06
0.0400033
-1.2446e-05
0.0400157
-6.75197e-06
0.040002
-5.21321e-06
0.0400023
-3.80724e-06
0.0400045
-5.12246e-07
0.0400047
2.69443e-06
0.0399889
1.83457e-06
0.039991
9.30286e-07
0.0399891
0.0399891
-4.20896e-06
0.0399986
-8.42082e-06
0.0399986
-1.26287e-05
0.0399986
-1.68296e-05
0.0399986
-1.9018e-05
0.0399986
-2.31875e-05
0.0400005
-2.13277e-05
0.0400124
-2.34307e-05
0.0400163
-2.54725e-05
0.0400142
-2.94391e-05
0.040014
-3.32957e-05
0.0400137
-4.1015e-05
0.0400334
-4.85847e-05
0.040019
-5.39504e-05
0.0400105
-5.70789e-05
0.040008
-5.7916e-05
0.0400053
-5.84253e-05
0.0400045
-5.05647e-05
0.0399956
-4.62855e-05
0.0399946
-5.95102e-05
0.0400195
-6.62393e-05
0.0400083
-6.64268e-05
0.040001
-6.60468e-05
0.0399997
-6.50805e-05
0.0399983
-6.35315e-05
0.0399969
-6.14061e-05
0.0399953
-5.87271e-05
0.0399942
-5.57334e-05
0.0399936
-5.34662e-05
0.0399979
-5.50799e-05
0.0400136
-5.21865e-05
0.0399961
-4.7726e-05
0.03999
-4.26897e-05
0.0399887
-3.77638e-05
0.0399886
-3.40322e-05
0.0399889
-2.9176e-05
0.0399886
-2.44689e-05
0.0399889
-1.99777e-05
0.0399893
-1.37596e-05
0.0399878
-9.86204e-06
0.0399905
-6.32347e-06
0.0399912
-3.17131e-06
0.039992
-4.24776e-07
0.0399929
1.90737e-06
0.0399938
3.82432e-06
0.0399947
5.331e-06
0.0399956
6.43967e-06
0.0399965
5.16924e-06
0.0399973
7.53925e-06
0.0399961
7.57544e-06
0.0400009
-2.69333e-06
0.0400136
-3.2405e-06
0.0400162
-4.04152e-06
0.0400028
-3.06032e-06
0.0400013
-2.26538e-06
0.0400037
4.37488e-06
0.0399981
2.8908e-06
0.0399903
3.31395e-06
0.0399906
1.67502e-06
0.0399907
0.0399908
-5.13962e-06
0.0400038
-1.02836e-05
0.0400038
-1.54246e-05
0.0400038
-2.05585e-05
0.0400037
-2.56831e-05
0.0400037
-2.87868e-05
0.0400036
-2.58592e-05
0.0400095
-3.0887e-05
0.0400214
-3.58503e-05
0.0400192
-3.87215e-05
0.0400169
-4.14684e-05
0.0400165
-4.60492e-05
0.040038
-5.84339e-05
0.0400314
-6.4581e-05
0.0400167
-6.84274e-05
0.0400118
-7.19202e-05
0.0400088
-6.89977e-05
0.0400016
-5.76188e-05
0.0399842
-6.56748e-05
0.0400027
-7.71046e-05
0.0400309
-8.19035e-05
0.0400131
-8.20061e-05
0.0400011
-8.13823e-05
0.039999
-8.00103e-05
0.0399969
-7.78771e-05
0.0399948
-7.49984e-05
0.0399925
-7.14049e-05
0.0399906
-6.71425e-05
0.0399893
-6.38872e-05
0.0399946
-6.41909e-05
0.0400139
-5.99131e-05
0.0399918
-5.38015e-05
0.0399839
-4.76885e-05
0.0399826
-4.10869e-05
0.039982
-3.39041e-05
0.0399817
-2.76469e-05
0.0399823
-2.16136e-05
0.0399828
-1.5891e-05
0.0399835
-1.25532e-05
0.0399845
-7.66171e-06
0.0399856
-3.26333e-06
0.0399868
2.60733e-06
0.0399862
5.92971e-06
0.0399896
8.69525e-06
0.0399911
1.09032e-05
0.0399925
1.25662e-05
0.039994
1.37037e-05
0.0399954
1.43371e-05
0.0399967
1.25009e-05
0.039998
4.2282e-06
0.0400092
-8.43671e-06
0.0400263
2.52135e-06
0.0400053
3.15755e-06
0.0400021
1.51278e-06
0.0400029
3.62719e-06
0.0400016
9.54204e-06
0.0399921
7.29791e-06
0.0399926
4.93371e-06
0.0399929
2.48997e-06
0.0399931
0.0399933
-6.0501e-06
0.0400098
-1.0106e-05
0.0400078
-1.61621e-05
0.0400098
-2.22149e-05
0.0400098
-2.82598e-05
0.0400097
-3.42882e-05
0.0400097
-3.62864e-05
0.0400115
-3.62393e-05
0.0400213
-4.2126e-05
0.040025
-4.79136e-05
0.0400227
-5.15732e-05
0.0400201
-3.90537e-05
0.0400255
-6.22553e-05
0.0400546
-7.52027e-05
0.0400296
-8.17969e-05
0.0400184
-8.39687e-05
0.0400109
-7.96544e-05
0.0399973
-7.87694e-05
0.0399833
-8.51967e-05
0.0400091
-9.48824e-05
0.0400406
-9.77844e-05
0.040016
-9.78248e-05
0.0400011
-9.69583e-05
0.0399982
-9.51552e-05
0.0399951
-9.24029e-05
0.039992
-8.87259e-05
0.0399888
-8.39581e-05
0.0399859
-7.89652e-05
0.0399843
-7.42202e-05
0.0399899
-7.31214e-05
0.0400128
-6.7349e-05
0.039986
-5.98828e-05
0.0399764
-5.17829e-05
0.0399745
-4.39927e-05
0.0399742
-3.70583e-05
0.0399748
-2.93144e-05
0.0399746
-1.98818e-05
0.0399734
-1.28674e-05
0.0399765
-6.36416e-06
0.039978
-4.48064e-07
0.0399797
4.82579e-06
0.0399816
7.41634e-06
0.0399836
1.13037e-05
0.0399857
1.6476e-05
0.0399859
1.89439e-05
0.03999
2.07206e-05
0.0399922
2.18344e-05
0.0399943
2.23187e-05
0.0399962
2.02151e-05
0.0400001
9.57396e-06
0.0400198
1.04359e-05
0.0400254
1.08355e-05
0.0400049
8.84019e-06
0.0400041
8.49963e-06
0.0400033
1.58665e-05
0.0399942
1.29866e-05
0.039995
9.91187e-06
0.0399957
6.69136e-06
0.0399961
3.3739e-06
0.0399965
0.0399967
-6.94004e-06
0.0400168
-1.38898e-05
0.0400148
-2.08428e-05
0.0400168
-2.77978e-05
0.0400167
-3.47514e-05
0.0400167
-4.16951e-05
0.0400166
-4.66156e-05
0.0400164
-4.54893e-05
0.0400202
-5.03036e-05
0.0400299
-5.50176e-05
0.0400274
-6.15921e-05
0.0400267
-6.39765e-05
0.0400278
-6.80695e-05
0.0400587
-8.78631e-05
0.0400494
-9.3262e-05
0.0400238
-9.21747e-05
0.0400099
-7.65401e-05
0.0399816
-9.61846e-05
0.040003
-0.000103033
0.0400159
-0.000111007
0.0400486
-0.000114042
0.040019
-0.000114039
0.0400011
-0.000112937
0.0399971
-0.000110691
0.0399929
-0.000107305
0.0399886
-0.000102577
0.0399841
-9.71593e-05
0.0399804
-9.05246e-05
0.0399777
-8.45881e-05
0.0399839
-8.19611e-05
0.0400102
-7.45507e-05
0.0399786
-6.5191e-05
0.039967
-5.57654e-05
0.0399651
-4.58593e-05
0.0399643
-3.54507e-05
0.0399644
-2.61054e-05
0.0399653
-1.91735e-05
0.0399665
-1.07902e-05
0.0399681
-3.06412e-06
0.0399702
5.91441e-06
0.0399707
1.20831e-05
0.0399754
1.73962e-05
0.0399783
2.18319e-05
0.0399813
2.33879e-05
0.0399843
2.80698e-05
0.0399854
2.99113e-05
0.0399903
3.09428e-05
0.0399932
3.1211e-05
0.039996
1.87744e-05
0.0400125
1.70241e-06
0.0400369
1.80004e-05
0.0400091
1.77643e-05
0.0400051
1.70613e-05
0.0400048
2.19486e-05
0.0399984
1.8486e-05
0.0399977
1.47341e-05
0.0399988
1.07526e-05
0.0399996
6.59967e-06
0.0400003
4.33354e-06
0.0399987
0.040001
-5.80562e-06
0.0400226
-1.56288e-05
0.0400246
-2.34593e-05
0.0400246
-2.92981e-05
0.0400226
-3.71469e-05
0.0400245
-4.49973e-05
0.0400244
-5.28345e-05
0.0400243
-5.66442e-05
0.040024
-5.83943e-05
0.0400316
-6.60555e-05
0.040035
-7.35752e-05
0.0400342
-7.69187e-05
0.0400312
-5.99934e-05
0.0400418
-8.86139e-05
0.0400781
-0.000108864
0.0400441
-0.000110567
0.0400116
-0.000107648
0.0399787
-0.000113916
0.0400093
-0.000119283
0.0400213
-0.000127615
0.0400569
-0.000130823
0.0400222
-0.000130819
0.0400011
-0.000129492
0.0399957
-0.000126814
0.0399902
-0.000122744
0.0399846
-0.000117297
0.0399786
-0.000110541
0.0399737
-0.000102569
0.0399697
-9.52978e-05
0.0399766
-9.07727e-05
0.0400057
-8.15679e-05
0.0399694
-7.05292e-05
0.039956
-5.90036e-05
0.0399535
-4.74147e-05
0.0399527
-3.49766e-05
0.0399519
-2.38929e-05
0.0399542
-1.33492e-05
0.0399559
-3.50316e-06
0.0399583
5.51497e-06
0.0399612
1.16043e-05
0.0399646
2.06879e-05
0.0399663
2.67261e-05
0.0399722
3.1691e-05
0.0399763
3.559e-05
0.0399804
3.84435e-05
0.0399825
4.02843e-05
0.0399885
4.11606e-05
0.0399923
3.71414e-05
0.04
2.42912e-05
0.0400254
2.46765e-05
0.0400365
2.63373e-05
0.0400074
2.5382e-05
0.040006
3.18815e-05
0.0399983
2.99088e-05
0.0400004
2.55312e-05
0.0400021
2.0821e-05
0.0400035
1.58473e-05
0.0400046
1.06772e-05
0.0400055
5.37726e-06
0.040004
0.0400064
-8.64817e-06
0.0400312
-1.73172e-05
0.0400333
-2.40004e-05
0.0400313
-3.47084e-05
0.0400333
-4.14351e-05
0.0400313
-5.0182e-05
0.0400332
-5.89365e-05
0.040033
-6.76801e-05
0.0400328
-6.83736e-05
0.0400323
-7.49997e-05
0.0400417
-8.35029e-05
0.0400427
-9.18108e-05
0.0400395
-9.38494e-05
0.0400438
-0.000109463
0.0400937
-0.000118644
0.0400532
-0.000115249
0.0400082
-0.000125131
0.0399886
-0.000132119
0.0400162
-0.000136074
0.0400253
-0.000144834
0.0400657
-0.000148311
0.0400257
-0.000148348
0.0400012
-0.000146838
0.0399942
-0.000143708
0.0399871
-0.000138918
0.0399798
-0.000132502
0.0399722
-0.000124501
0.0399657
-0.000115228
0.0399604
-0.000105854
0.0399673
-9.96538e-05
0.0399994
-8.84342e-05
0.0399582
-7.53089e-05
0.0399429
-6.14661e-05
0.0399397
-4.77801e-05
0.039939
-3.55212e-05
0.0399397
-2.25337e-05
0.0399412
-1.02357e-05
0.0399436
3.1826e-06
0.0399449
1.35749e-05
0.0399508
2.28246e-05
0.0399553
2.88494e-05
0.0399603
3.76042e-05
0.0399635
4.30779e-05
0.0399708
4.72756e-05
0.0399762
4.82332e-05
0.0399816
5.19959e-05
0.0399847
5.06421e-05
0.0399937
3.62393e-05
0.0400144
1.49133e-05
0.0400467
3.86231e-05
0.0400128
3.75413e-05
0.0400085
4.37677e-05
0.0399998
3.93683e-05
0.0400027
3.44323e-05
0.0400053
2.90419e-05
0.0400075
2.32774e-05
0.0400093
1.92185e-05
0.0400087
1.29383e-05
0.0400117
4.51151e-06
0.0400125
0.0400109
-9.459e-06
0.0400407
-1.69434e-05
0.0400408
-2.84587e-05
0.0400428
-3.6005e-05
0.0400408
-4.75973e-05
0.0400429
-5.72283e-05
0.0400428
-6.489e-05
0.0400407
-7.45712e-05
0.0400424
-8.42408e-05
0.040042
-8.38444e-05
0.0400413
-9.1357e-05
0.0400503
-0.000102697
0.0400508
-0.000109769
0.0400509
-0.000108452
0.0400923
-0.000120669
0.0400655
-0.000108309
0.0399958
-0.000137081
0.0400174
-0.000146874
0.040026
-0.000155534
0.0400339
-0.000160846
0.040071
-0.00016467
0.0400295
-0.000166821
0.0400033
-0.000165175
0.0399926
-0.000161602
0.0399835
-0.000156083
0.0399743
-0.000148591
0.0399647
-0.000139022
0.0399561
-0.000128104
0.0399495
-0.00011701
0.0399562
-0.000108681
0.0399911
-9.49927e-05
0.0399445
-7.95153e-05
0.0399274
-6.36905e-05
0.0399239
-4.74624e-05
0.0399228
-3.09536e-05
0.0399232
-1.58578e-05
0.0399261
-1.63766e-06
0.0399294
9.49072e-06
0.0399338
2.33472e-05
0.039937
3.3812e-05
0.0399449
4.28008e-05
0.0399513
4.82691e-05
0.039958
5.62042e-05
0.0399629
6.06418e-05
0.0399718
6.36258e-05
0.0399786
6.32302e-05
0.0399851
6.1533e-05
0.0399954
5.06442e-05
0.0400253
4.86671e-05
0.0400487
5.16308e-05
0.0400098
5.77103e-05
0.0400024
5.29946e-05
0.0400045
4.75834e-05
0.0400082
4.15756e-05
0.0400113
3.50643e-05
0.040014
3.01413e-05
0.0400142
2.089e-05
0.0400179
1.53998e-05
0.0400172
7.7481e-06
0.0400201
0.0400186
-1.02337e-05
0.0400509
-2.05036e-05
0.040051
-2.88095e-05
0.0400511
-4.11754e-05
0.0400532
-4.95985e-05
0.0400513
-6.01002e-05
0.0400533
-7.0666e-05
0.0400513
-8.12865e-05
0.0400531
-9.19359e-05
0.0400526
-0.000102575
0.0400519
-0.000103136
0.0400508
-0.000111569
0.0400593
-0.000119819
0.0400591
-9.37156e-05
0.0400662
-0.000126939
0.0400987
-0.000143665
0.0400125
-0.000157487
0.0400312
-0.000166282
0.0400348
-0.000169807
0.0400374
-0.000169828
0.040071
-0.000184123
0.0400438
-0.0001865
0.0400057
-0.000184763
0.0399909
-0.000180797
0.0399795
-0.000174489
0.0399679
-0.000165868
0.0399561
-0.000154982
0.0399452
-0.000142189
0.0399367
-0.000128735
0.0399427
-0.000117995
0.0399804
-0.000101917
0.0399284
-8.37445e-05
0.0399092
-6.48172e-05
0.0399049
-4.63351e-05
0.0399043
-2.90926e-05
0.0399059
-1.16498e-05
0.0399086
6.68611e-06
0.0399111
2.16689e-05
0.0399188
3.3102e-05
0.0399255
4.68389e-05
0.0399311
5.68048e-05
0.0399413
6.49616e-05
0.0399499
7.13213e-05
0.0399565
7.59209e-05
0.0399672
7.88353e-05
0.0399757
7.61622e-05
0.0399878
5.60242e-05
0.0400155
4.25393e-05
0.0400388
6.57472e-05
0.0400255
7.18315e-05
0.0400037
6.89248e-05
0.0400053
6.31404e-05
0.0400103
5.65916e-05
0.0400147
5.13913e-05
0.0400165
4.36379e-05
0.0400217
3.3439e-05
0.0400244
2.68888e-05
0.0400245
1.6074e-05
0.0400281
9.09069e-06
0.0400271
0.0400277
-1.09657e-05
0.0400619
-2.19781e-05
0.040062
-3.30441e-05
0.0400622
-4.2184e-05
0.0400623
-5.54259e-05
0.0400645
-6.47683e-05
0.0400627
-7.82278e-05
0.0400647
-8.77792e-05
0.0400626
-9.94252e-05
0.0400643
-0.000111113
0.0400636
-0.000122791
0.0400625
-0.000124367
0.0400608
-0.000133776
0.0400686
-0.000136911
0.0400694
-0.000139464
0.0401012
-0.000165414
0.0400385
-0.000176491
0.0400423
-0.000182471
0.0400408
-0.000183094
0.0400381
-0.000160077
0.040048
-0.000190917
0.0400747
-0.00020564
0.0400204
-0.000205941
0.0399912
-0.000201607
0.0399752
-0.000194517
0.0399609
-0.000184448
0.039946
-0.000172067
0.0399328
-0.000156985
0.0399217
-0.000141255
0.039927
-0.000127723
0.0399668
-0.000108664
0.0399094
-8.72096e-05
0.0398878
-6.55697e-05
0.0398833
-4.36641e-05
0.0398824
-2.17602e-05
0.039884
-1.68149e-06
0.0398886
1.5013e-05
0.0398944
3.40221e-05
0.0398998
4.91382e-05
0.0399104
6.02155e-05
0.0399201
7.3166e-05
0.0399284
8.19789e-05
0.039941
8.66834e-05
0.0399518
9.33436e-05
0.0399605
9.40732e-05
0.0399749
8.29926e-05
0.0399989
5.82968e-05
0.0400402
7.39732e-05
0.0400231
9.02549e-05
0.0400092
8.7313e-05
0.0400067
8.12747e-05
0.0400114
7.42726e-05
0.0400173
6.64503e-05
0.0400225
5.79199e-05
0.040025
4.88001e-05
0.0400308
4.12043e-05
0.040032
3.12309e-05
0.0400345
2.09799e-05
0.0400383
1.05469e-05
0.0400375
0.0400383
-1.16478e-05
0.0400735
-2.33542e-05
0.0400738
-3.51323e-05
0.040074
-4.70142e-05
0.0400742
-5.70238e-05
0.0400745
-6.91891e-05
0.0400748
-8.15186e-05
0.040077
-9.40113e-05
0.0400751
-0.000106655
0.0400769
-0.000119418
0.0400764
-0.000130238
0.0400733
-0.000143066
0.0400737
-0.000147769
0.0400733
-0.000156307
0.0400779
-0.00013446
0.0400794
-0.00017171
0.0400757
-0.000192159
0.0400627
-0.000203498
0.0400521
-0.000209404
0.040044
-0.00020547
0.040044
-0.000223237
0.0400924
-0.000230559
0.0400277
-0.000229052
0.0399896
-0.000224433
0.0399706
-0.000216566
0.039953
-0.000205351
0.0399348
-0.000190906
0.0399184
-0.000173607
0.0399044
-0.000154823
0.0399082
-0.000138073
0.0399501
-0.000115553
0.0398869
-9.07027e-05
0.0398629
-6.50722e-05
0.0398577
-3.98798e-05
0.0398572
-1.67014e-05
0.0398609
8.34629e-06
0.0398635
2.96561e-05
0.0398731
4.68953e-05
0.0398825
6.58123e-05
0.0398915
8.02737e-05
0.0399056
9.02111e-05
0.0399184
0.000101619
0.0399296
0.000108575
0.0399449
0.000113171
0.0399559
0.000109565
0.0399785
9.79274e-05
0.0400105
9.63923e-05
0.0400418
0.000111124
0.0400083
0.000108328
0.040012
0.000102179
0.0400128
9.48391e-05
0.0400187
8.64669e-05
0.0400257
7.92133e-05
0.0400298
6.72068e-05
0.040037
5.8583e-05
0.0400395
4.54512e-05
0.0400451
3.39293e-05
0.040046
2.41214e-05
0.0400481
1.21212e-05
0.0400495
0.0400504
-1.22719e-05
0.0400858
-2.26094e-05
0.0400841
-3.50466e-05
0.0400864
-4.76181e-05
0.0400868
-6.03628e-05
0.0400873
-7.33125e-05
0.0400878
-8.64902e-05
0.0400902
-9.99057e-05
0.0400885
-0.000113557
0.0400906
-0.000125414
0.0400882
-0.000141449
0.0400893
-0.000155575
0.0400878
-0.000167686
0.0400854
-0.000171647
0.0400819
-0.00018134
0.0400891
-0.000198311
0.0400927
-0.000212507
0.0400769
-0.000223526
0.0400632
-0.000232983
0.0400534
-0.000240474
0.0400515
-0.000251469
0.0401034
-0.000255659
0.0400319
-0.000254561
0.0399885
-0.000249816
0.0399658
-0.000241166
0.0399443
-0.000228542
0.0399222
-0.000211765
0.0399016
-0.00019173
0.0398843
-0.000169813
0.0398863
-0.00014929
0.0399296
-0.000122691
0.0398603
-9.34261e-05
0.0398336
-6.38033e-05
0.039828
-3.45758e-05
0.039828
-5.64862e-06
0.0398319
1.87868e-05
0.0398391
4.50163e-05
0.0398468
6.6688e-05
0.0398609
8.35455e-05
0.0398747
0.000101431
0.0398877
0.000114324
0.0399055
0.000124246
0.0399197
0.000131312
0.0399378
0.000129686
0.0399576
0.000107594
0.0400006
9.32217e-05
0.0400249
0.000126616
0.0400084
0.000130159
0.0400048
0.00012407
0.0400181
0.00011851
0.0400184
0.000109689
0.0400275
9.97663e-05
0.0400356
8.89146e-05
0.0400406
7.72803e-05
0.0400487
6.50015e-05
0.0400517
5.42066e-05
0.0400559
4.10049e-05
0.0400592
2.75062e-05
0.0400616
1.38168e-05
0.0400632
0.0400642
-1.28283e-05
0.0400986
-2.57418e-05
0.040097
-3.8772e-05
0.0400994
-5.19734e-05
0.0401
-6.53965e-05
0.0401007
-7.9086e-05
0.0401015
-9.10725e-05
0.0401022
-0.000105391
0.0401028
-0.000118034
0.0401032
-0.000135026
0.0401052
-0.000148294
0.0401026
-0.000163791
0.0401033
-0.000179434
0.040101
-0.000195054
0.0400975
-0.000202452
0.0400965
-0.000217376
0.0401076
-0.000231558
0.0400911
-0.000244614
0.0400762
-0.000256056
0.0400649
-0.000265363
0.0400608
-0.000275977
0.040114
-0.000283387
0.0400393
-0.00028301
0.0399882
-0.000278339
0.0399611
-0.000269014
0.039935
-0.000254844
0.039908
-0.000235914
0.0398827
-0.000212469
0.0398609
-0.000186665
0.0398605
-0.00016165
0.0399046
-0.000130224
0.0398288
-9.61842e-05
0.0397996
-6.16161e-05
0.0397935
-2.76794e-05
0.0397941
5.77891e-06
0.0397985
3.60512e-05
0.0398088
6.15718e-05
0.0398213
8.79045e-05
0.0398345
0.000108808
0.0398538
0.000126156
0.0398704
0.000139924
0.0398918
0.000150235
0.0399094
0.000155236
0.0399328
0.000141201
0.0399716
0.000114438
0.0400274
0.000142918
0.0399964
0.000155049
0.0399962
0.000149212
0.0400106
0.000145591
0.0400217
0.0001344
0.0400296
0.000125874
0.0400361
0.000114217
0.0400473
0.000101591
0.0400533
9.01658e-05
0.0400601
7.40762e-05
0.0400678
5.94653e-05
0.0400705
4.44485e-05
0.0400742
3.11405e-05
0.0400749
1.56349e-05
0.0400787
0.0400798
-1.13007e-05
0.0401099
-2.67141e-05
0.0401124
-4.02642e-05
0.040113
-5.2019e-05
0.0401118
-6.60556e-05
0.0401147
-8.04235e-05
0.0401158
-9.51866e-05
0.040117
-0.000110374
0.040118
-0.000126018
0.0401188
-0.000140119
0.0401193
-0.00015868
0.0401212
-0.000175635
0.0401202
-0.000190897
0.0401163
-0.000208331
0.0401149
-0.000223762
0.0401119
-0.00023486
0.0401187
-0.000253371
0.0401096
-0.000266833
0.0400897
-0.000280715
0.0400788
-0.000290401
0.0400705
-0.000287178
0.0401108
-0.000310279
0.0400624
-0.000315047
0.0399929
-0.000310767
0.0399569
-0.000300898
0.0399251
-0.000285148
0.0398922
-0.000263512
0.0398611
-0.000236567
0.0398339
-0.000205909
0.0398298
-0.000175557
0.0398742
-0.000138341
0.0397916
-9.83426e-05
0.0397596
-5.77191e-05
0.0397528
-1.82457e-05
0.0397546
1.80496e-05
0.0397622
5.47003e-05
0.0397722
8.58837e-05
0.0397901
0.000113136
0.0398073
0.000136203
0.0398307
0.00015498
0.0398516
0.000169529
0.0398772
0.000178028
0.0399009
0.000180739
0.0399301
0.000168014
0.0399843
0.000178109
0.0400173
0.000183225
0.0399913
0.000179903
0.0399996
0.000170451
0.0400201
0.000164975
0.0400272
0.000155907
0.0400387
0.000143457
0.0400485
0.000129844
0.0400609
0.000115255
0.0400679
9.98537e-05
0.0400755
8.58129e-05
0.0400819
6.92433e-05
0.0400871
5.22748e-05
0.0400912
3.30129e-05
0.0400942
1.75739e-05
0.0400942
0.0400974
-1.36952e-05
0.0401236
-2.75084e-05
0.0401262
-3.9485e-05
0.0401249
-5.5728e-05
0.040128
-6.82925e-05
0.0401273
-8.32753e-05
0.0401308
-9.87404e-05
0.0401324
-0.000114749
0.040134
-0.000131351
0.0401355
-0.00014857
0.0401365
-0.00016443
0.040137
-0.000182898
0.0401387
-0.000201896
0.0401353
-0.000221338
0.0401344
-0.000240995
0.0401316
-0.000260623
0.0401383
-0.00027183
0.0401208
-0.000292196
0.0401101
-0.000305106
0.0400917
-0.000311903
0.0400773
-0.000281682
0.0400806
-0.000326958
0.0401077
-0.000349444
0.0400154
-0.00034801
0.0399554
-0.00033785
0.039915
-0.000320491
0.0398749
-0.000295835
0.0398364
-0.000264282
0.0398024
-0.000228268
0.0397938
-0.000191428
0.0398374
-0.000147211
0.0397474
-9.98315e-05
0.0397122
-5.24087e-05
0.0397054
-6.39978e-06
0.0397086
3.77326e-05
0.039718
7.54209e-05
0.0397345
0.000112697
0.0397528
0.000141126
0.0397788
0.000168409
0.0398034
0.000186546
0.0398335
0.000203683
0.0398601
0.000208118
0.0398965
0.000182336
0.0399559
0.00017463
0.039992
0.000209062
0.0399829
0.000216483
0.0399839
0.000209271
0.0400068
0.000199798
0.0400296
0.000188243
0.0400387
0.00017704
0.0400499
0.000160436
0.0400651
0.000146657
0.0400747
0.000129905
0.0400846
0.000112362
0.040093
9.41851e-05
0.0401001
7.55095e-05
0.0401058
5.84612e-05
0.0401082
3.91335e-05
0.0401135
1.96306e-05
0.0401137
0.040117
-1.39831e-05
0.0401376
-2.81001e-05
0.0401403
-4.24158e-05
0.0401393
-5.50231e-05
0.0401406
-7.2042e-05
0.0401443
-8.55391e-05
0.0401443
-0.000101629
0.0401485
-0.00011839
0.0401508
-0.000135899
0.040153
-0.000154215
0.0401548
-0.000173379
0.0401562
-0.000191392
0.0401567
-0.000214244
0.0401581
-0.000233815
0.0401539
-0.000255966
0.0401537
-0.00027841
0.0401608
-0.000300802
0.0401432
-0.000314608
0.0401239
-0.000335209
0.0401123
-0.000351732
0.0400938
-0.000353159
0.040082
-0.000377908
0.0401325
-0.000393087
0.0400306
-0.000391261
0.0399536
-0.000381233
0.0399049
-0.000362241
0.0398559
-0.000334151
0.0398083
-0.000297615
0.0397658
-0.00025464
0.0397508
-0.000209844
0.0397926
-0.000157031
0.0396946
-0.00010092
0.0396561
-4.52567e-05
0.0396498
8.70254e-06
0.0396546
5.96494e-05
0.0396671
0.000105058
0.0396891
0.000144922
0.039713
0.000178721
0.039745
0.00020626
0.0397759
0.000227612
0.0398121
0.000239064
0.0398486
0.000231108
0.0399044
0.000204454
0.0399825
0.000236929
0.0399596
0.000253459
0.0399663
0.000248808
0.0399885
0.000237367
0.0400182
0.000227454
0.0400395
0.000215504
0.0400507
0.000197862
0.0400675
0.000182826
0.0400802
0.000164638
0.0400929
0.000145518
0.0401037
0.000125646
0.0401129
0.000107189
0.0401185
8.62635e-05
0.0401267
6.29849e-05
0.0401315
4.34731e-05
0.040133
1.97894e-05
0.0401373
0.0401368
-1.41571e-05
0.0401518
-2.6455e-05
0.0401526
-4.29975e-05
0.0401558
-5.78761e-05
0.0401555
-7.12079e-05
0.0401577
-8.91337e-05
0.0401622
-0.000103732
0.0401631
-0.000121156
0.0401682
-0.000137482
0.0401693
-0.000156829
0.0401742
-0.000177259
0.0401766
-0.000198852
0.0401783
-0.000221599
0.0401809
-0.000245462
0.0401778
-0.000270324
0.0401786
-0.000293949
0.0401844
-0.000319994
0.0401692
-0.000347957
0.0401518
-0.000367016
0.0401313
-0.000388317
0.0401151
-0.000404519
0.0400982
-0.00040606
0.040134
-0.000435142
0.0400597
-0.000441956
0.0399604
-0.000432713
0.0398957
-0.000412269
0.0398354
-0.000380276
0.0397763
-0.000337239
0.0397228
-0.000286141
0.0396997
-0.000231508
0.0397379
-0.000168034
0.0396311
-0.000101357
0.0395894
-3.50674e-05
0.0395835
2.81178e-05
0.0395914
8.48142e-05
0.0396104
0.000138719
0.0396351
0.000181673
0.03967
0.000221077
0.0397056
0.00024682
0.0397501
0.000263129
0.0397958
0.000272444
0.0398393
0.000271561
0.0399053
0.000285
0.0399691
0.000295358
0.0399492
0.000293613
0.0399681
0.000280404
0.0400017
0.000266312
0.0400323
0.000257504
0.0400483
0.000240729
0.0400675
0.000224332
0.0400839
0.000204581
0.0400999
0.000183746
0.0401137
0.000162038
0.0401254
0.000141673
0.0401333
0.000116756
0.0401434
9.54508e-05
0.040148
7.18386e-05
0.0401551
4.80177e-05
0.0401568
2.40629e-05
0.0401613
0.0401609
-1.42039e-05
0.040166
-2.85704e-05
0.040167
-4.11858e-05
0.0401684
-5.61983e-05
0.0401705
-7.37438e-05
0.0401752
-8.79345e-05
0.0401764
-0.000104938
0.0401801
-0.00012289
0.0401862
-0.000141934
0.0401883
-0.000162212
0.0401945
-0.000183854
0.0401983
-0.00020697
0.0402014
-0.000229629
0.0402035
-0.000255862
0.040204
-0.000281639
0.0402043
-0.000308836
0.0402116
-0.000340999
0.0402014
-0.000371742
0.0401826
-0.000402339
0.0401619
-0.000423601
0.0401364
-0.000440362
0.040115
-0.000410584
0.0401042
-0.000470915
0.04012
-0.000499832
0.0399893
-0.000494407
0.0398903
-0.000472793
0.0398138
-0.000436162
0.0397397
-0.000385905
0.0396725
-0.000324189
0.039638
-0.000257096
0.0396708
-0.000180245
0.0395542
-0.000100002
0.0395092
-2.14337e-05
0.0395049
5.25395e-05
0.0395175
0.000120608
0.0395423
0.000179884
0.0395759
0.00023039
0.0396195
0.000267563
0.0396685
0.000285392
0.0397323
0.000284281
0.0397969
0.000279027
0.0398446
0.000288427
0.0398959
0.000337018
0.0399205
0.00034251
0.0399437
0.000333719
0.0399769
0.000319333
0.0400161
0.000305852
0.0400458
0.000289839
0.0400643
0.000271897
0.0400854
0.000250388
0.0401054
0.000227632
0.0401227
0.000203902
0.0401374
0.000181423
0.0401479
0.000154348
0.0401604
0.000130852
0.0401669
0.000103014
0.0401758
7.89602e-05
0.0401792
5.07277e-05
0.0401851
2.64153e-05
0.0401856
0.0401873
-1.41114e-05
0.0401801
-2.83973e-05
0.0401813
-4.2964e-05
0.040183
-5.79649e-05
0.0401855
-7.15378e-05
0.0401888
-8.78627e-05
0.0401928
-0.000105099
0.0401974
-0.000123418
0.0402045
-0.000143022
0.0402079
-0.000164085
0.0402155
-0.000184789
0.040219
-0.000209329
0.040226
-0.000235887
0.0402301
-0.000264563
0.0402327
-0.000293443
0.0402332
-0.000318519
0.0402367
-0.000357225
0.0402401
-0.000397507
0.0402228
-0.000434556
0.040199
-0.000471284
0.0401731
-0.000496054
0.0401397
-0.000514701
0.0401229
-0.000551569
0.0401569
-0.000571537
0.0400093
-0.000569612
0.0398883
-0.000547572
0.0397918
-0.000505922
0.039698
-0.000445871
0.0396125
-0.000371187
0.0395633
-0.00028773
0.0395874
-0.000193957
0.0394605
-9.72426e-05
0.0394125
-3.10374e-06
0.0394108
8.41666e-05
0.0394302
0.000162578
0.0394639
0.000227988
0.0395105
0.000282842
0.0395647
0.000312048
0.0396393
0.000331443
0.0397129
0.000355875
0.0397725
0.000354983
0.0398455
0.000381324
0.0398696
0.000398639
0.0399032
0.000394556
0.0399478
0.000377972
0.0399935
0.000357756
0.0400363
0.000344235
0.0400593
0.000324448
0.0400841
0.000300889
0.040109
0.000275913
0.0401304
0.000251864
0.0401467
0.00022498
0.0401643
0.000197515
0.0401754
0.000169595
0.0401883
0.00014136
0.0401952
0.000114912
0.0402023
8.42926e-05
0.0402098
5.75975e-05
0.0402118
2.88357e-05
0.0402144
0.0402161
-1.38683e-05
0.0401939
-2.792e-05
0.0401954
-4.22764e-05
0.0401973
-5.50866e-05
0.0401983
-7.05407e-05
0.0402042
-8.68091e-05
0.040209
-0.000106098
0.0402167
-0.000122586
0.040221
-0.000142533
0.0402279
-0.00016216
0.0402352
-0.000187762
0.0402446
-0.000211557
0.0402498
-0.000239834
0.0402584
-0.000270857
0.0402637
-0.000304794
0.0402672
-0.000337779
0.0402697
-0.000379641
0.040282
-0.000422196
0.0402654
-0.000466935
0.0402437
-0.000512691
0.0402189
-0.000557792
0.0401848
-0.000589814
0.0401549
-0.00061884
0.0401859
-0.000657155
0.0400476
-0.000660865
0.0398921
-0.000638619
0.0397695
-0.000591361
0.0396508
-0.000519547
0.0395407
-0.00042624
0.03947
-0.000321143
0.0394823
-0.000207584
0.0393469
-8.95133e-05
0.0392944
2.32733e-05
0.039298
0.000125679
0.0393278
0.000213946
0.0393756
0.000289605
0.0394348
0.000335698
0.0395186
0.000366724
0.0396082
0.000404764
0.0396749
0.000437395
0.0397399
0.000455079
0.0398278
0.000465385
0.0398593
0.000460427
0.0399082
0.00044767
0.0399605
0.000428303
0.0400128
0.000409228
0.0400554
0.00038725
0.0400813
0.000363201
0.0401081
0.000335568
0.0401366
0.00030676
0.0401592
0.000277107
0.0401764
0.000246856
0.0401946
0.000216202
0.040206
0.000187292
0.0402172
0.000154196
0.0402283
0.000123017
0.0402335
9.37969e-05
0.040239