/*--------------------------------*- C++ -*----------------------------------*\
  =========                 |
  \\      /  F ield         | OpenFOAM: The Open Source CFD Toolbox
   \\    /   O peration     | Website:  https://openfoam.org
    \\  /    A nd           | Version:  12
     \\/     M anipulation  |
\*---------------------------------------------------------------------------*/
FoamFile
{
    format      ascii;
    class       volVectorField;
    location    "240";
    object      U;
}
// * * * * * * * * * * * * * * * * * * * * * * * * * * * * * * * * * * * * * //

dimensions      [0 1 -1 0 0 0 0];

internalField   nonuniform List<vector> 
16227
(
(2 -1.33482e-05 -6.38449e-23)
(2 -4.00378e-05 6.43453e-23)
(2 -6.6689e-05 -6.4346e-23)
(2 -9.32993e-05 -6.52798e-23)
(2 -0.000119828 6.52805e-23)
(2 -0.000146223 6.68175e-23)
(2 -0.00017245 1.00879e-24)
(2 -0.000198427 -1.3678e-22)
(2 -0.000224056 2.09529e-22)
(2 -0.000249217 -1.40558e-22)
(2 -0.000273778 0)
(2 -0.000297602 1.48275e-22)
(2 -0.000320494 0)
(2 -0.000342268 0)
(2 -0.000362677 0)
(2 -0.000381489 0)
(2 -0.000398451 0)
(2 -0.000413309 0)
(2 -0.000425808 0)
(2 -0.000435703 0)
(2 -0.000442762 -1.91345e-22)
(2 -0.000446778 -5.20419e-24)
(2 -0.000447594 1.96549e-22)
(2 -0.000445101 0)
(2 -0.000439253 -2.12023e-22)
(2 -0.000430067 2.12023e-22)
(2 -0.000417631 0)
(2 -0.000402091 1.12134e-22)
(2 -0.000383692 0)
(2 -0.000362734 0)
(2 -0.000339537 0)
(2 -0.000314519 0)
(2 -0.000288094 0)
(2 -0.000260723 2.48557e-22)
(2 -0.000232859 2.57175e-24)
(2 -0.00020495 -2.51136e-22)
(2 -0.000177412 0)
(2 -0.000150642 2.56867e-22)
(2 -0.000124988 1.27999e-24)
(2 -0.000100754 -2.5815e-22)
(2 -7.8191e-05 0)
(2 -5.7497e-05 0)
(2 -3.88187e-05 0)
(2 -2.22527e-05 0)
(2 -7.85183e-06 0)
(2 4.37325e-06 0)
(2 1.44516e-05 0)
(2 2.24492e-05 0)
(2 2.84509e-05 0)
(2 3.25655e-05 0)
(2 3.49254e-05 0)
(2 3.56714e-05 0)
(2 3.49698e-05 0)
(2 3.29683e-05 0)
(2 2.98227e-05 -1.28023e-22)
(2 2.57119e-05 1.28028e-22)
(2 2.08168e-05 0)
(2 1.53163e-05 0)
(2 9.38302e-06 0)
(2 3.16717e-06 1.27289e-22)
(2.00006 -4.07795e-05 3.09019e-25)
(2.00006 -0.000122365 0)
(2.00006 -0.00020383 0)
(2.00006 -0.000285197 0)
(2.00006 -0.000366305 -1.10492e-22)
(2.00006 -0.000447046 0)
(2.00006 -0.000527254 0)
(2.00006 -0.000606709 -3.48025e-22)
(2.00006 -0.000685079 2.32856e-22)
(2.00006 -0.000762008 -4.84498e-22)
(2.00005 -0.000837017 1.96422e-21)
(2.00005 -0.000909597 -1.24824e-21)
(2.00005 -0.000979201 6.35273e-22)
(2.00005 -0.00104518 0)
(2.00004 -0.00110674 0)
(2.00004 -0.00116311 0)
(2.00004 -0.00121343 0)
(2.00003 -0.00125685 0)
(2.00002 -0.00129252 0)
(2.00002 -0.00131962 0)
(2.00001 -0.00133735 0)
(2 -0.00134506 0)
(2 -0.00134225 0)
(1.99999 -0.00132855 0)
(1.99998 -0.00130384 0)
(1.99997 -0.00126821 -3.67034e-22)
(1.99997 -0.00122199 3.67044e-22)
(1.99996 -0.00116575 -1.89573e-22)
(1.99995 -0.00110032 0)
(1.99995 -0.00102674 0)
(1.99994 -0.000946221 0)
(1.99994 -0.000860199 0)
(1.99994 -0.000770151 0)
(1.99994 -0.000677646 0)
(1.99994 -0.000584247 0)
(1.99994 -0.000491482 -4.28818e-22)
(1.99994 -0.000400803 -3.20939e-24)
(1.99994 -0.000313511 -2.66302e-24)
(1.99994 -0.000230786 -2.14176e-24)
(1.99995 -0.000153631 4.36895e-22)
(1.99995 -8.28567e-05 4.39758e-22)
(1.99996 -1.90913e-05 -4.39769e-22)
(1.99996 3.72188e-05 0)
(1.99997 8.58069e-05 0)
(1.99997 0.000126549 0)
(1.99998 0.000159478 0)
(1.99998 0.000184755 0)
(1.99999 0.000202648 0)
(1.99999 0.000213499 0)
(1.99999 0.000217742 0)
(2 0.000215859 4.36391e-22)
(2 0.000208375 -8.72186e-22)
(2.00001 0.000195867 -8.68882e-22)
(2.00001 0.000178863 8.68913e-22)
(2.00001 0.000157928 -8.65753e-22)
(2.00001 0.000133695 1.29797e-21)
(2.00001 0.000106782 -4.32396e-22)
(2.00002 7.77893e-05 2.15795e-22)
(2.00002 4.73185e-05 -2.15798e-22)
(2.00002 1.59119e-05 -9.08859e-26)
(2.00016 -6.55204e-05 1.07489e-22)
(2.00016 -0.000196642 0)
(2.00016 -0.00032758 0)
(2.00016 -0.000458392 0)
(2.00016 -0.000588824 1.10482e-22)
(2.00016 -0.000718688 -2.24738e-22)
(2.00016 -0.000847755 -3.42262e-24)
(2.00016 -0.000975627 3.43229e-22)
(2.00015 -0.0011018 1.1672e-22)
(2.00015 -0.00122565 4.82879e-22)
(2.00015 -0.00134642 -4.7796e-22)
(2.00014 -0.00146313 -9.9361e-22)
(2.00013 -0.001575 1.2714e-22)
(2.00013 -0.00168093 0)
(2.00012 -0.0017795 1.34487e-22)
(2.00011 -0.0018694 0)
(2.00009 -0.00194918 0)
(2.00008 -0.00201736 0)
(2.00006 -0.00207251 -6.11241e-22)
(2.00004 -0.00211325 6.11177e-22)
(2.00003 -0.00213813 -3.23187e-22)
(2.00001 -0.00214606 3.2319e-22)
(1.99998 -0.00213615 0)
(1.99996 -0.00210782 -3.50012e-22)
(1.99994 -0.00206084 -8.76944e-24)
(1.99992 -0.00199538 3.58812e-22)
(1.9999 -0.00191206 0)
(1.99988 -0.00181188 0)
(1.99986 -0.00169633 0)
(1.99985 -0.00156725 0)
(1.99984 -0.00142681 2.0372e-22)
(1.99983 -0.00127753 -4.05005e-22)
(1.99982 -0.00112199 0)
(1.99982 -0.000962938 0)
(1.99982 -0.000803129 4.25991e-22)
(1.99982 -0.000645204 -4.26024e-22)
(1.99982 -0.00049167 0)
(1.99983 -0.000344797 0)
(1.99984 -0.000206595 0)
(1.99985 -7.87471e-05 0)
(1.99987 3.73921e-05 0)
(1.99988 0.000140787 0)
(1.9999 0.000230718 -2.20948e-22)
(1.99991 0.000306779 0)
(1.99993 0.000368831 0)
(1.99994 0.000416991 0)
(1.99996 0.000451611 -2.19736e-22)
(1.99997 0.000473202 4.40062e-22)
(1.99998 0.000482422 0)
(2 0.000480079 2.18937e-22)
(2.00001 0.000467042 0)
(2.00002 0.000444279 4.35758e-22)
(2.00003 0.000412759 8.68756e-22)
(2.00004 0.000373412 2.15192e-22)
(2.00004 0.000327297 -8.67095e-22)
(2.00005 0.000275514 4.32098e-22)
(2.00006 0.00021911 -4.3225e-22)
(2.00006 0.000159109 0)
(2.00006 9.65625e-05 0)
(2.00006 3.2432e-05 -2.14837e-22)
(2.00032 -8.93802e-05 0)
(2.00032 -0.000268309 0)
(2.00031 -0.000447015 -1.07227e-22)
(2.00031 -0.000625604 0)
(2.00031 -0.000803736 -1.10216e-22)
(2.00031 -0.000981195 1.10207e-22)
(2.00031 -0.00115764 0)
(2.00031 -0.00133258 -3.47472e-22)
(2.0003 -0.00150529 3.44554e-22)
(2.00029 -0.00167493 0)
(2.00029 -0.00184045 -4.91121e-22)
(2.00028 -0.00200039 -1.48849e-21)
(2.00026 -0.00215384 -2.55153e-22)
(2.00025 -0.00229909 0)
(2.00023 -0.00243415 -1.34441e-22)
(2.00021 -0.00255713 0)
(2.00018 -0.00266596 0)
(2.00015 -0.00275855 1.18562e-21)
(2.00012 -0.00283286 -1.1859e-21)
(2.00008 -0.00288664 0)
(2.00004 -0.00291788 -3.22902e-22)
(2 -0.00292511 -9.12246e-24)
(1.99996 -0.00290697 -9.13959e-24)
(1.99992 -0.00286254 3.41199e-22)
(1.99987 -0.00279151 0)
(1.99983 -0.00269415 0)
(1.99979 -0.0025713 0)
(1.99975 -0.00242448 1.92339e-22)
(1.99971 -0.00225584 2.37938e-24)
(1.99968 -0.00206808 1.99734e-22)
(1.99966 -0.00186442 1.403e-24)
(1.99964 -0.00164858 0)
(1.99963 -0.00142436 0)
(1.99962 -0.00119576 0)
(1.99962 -0.000966797 -4.27581e-22)
(1.99963 -0.000741339 -3.7304e-24)
(1.99964 -0.000523038 -3.13113e-24)
(1.99966 -0.000315132 -2.55355e-24)
(1.99968 -0.000120518 8.76296e-22)
(1.99971 5.84473e-05 -4.39126e-22)
(1.99974 0.000219838 0)
(1.99977 0.000362213 -2.2135e-22)
(1.9998 0.000484621 2.20933e-22)
(1.99983 0.00058654 0)
(1.99986 0.000667871 0)
(1.9999 0.000728861 0)
(1.99993 0.000770085 -2.20292e-22)
(1.99996 0.000792358 0)
(1.99999 0.000796685 0)
(2.00001 0.000784297 -4.37849e-22)
(2.00004 0.000756486 -8.72383e-22)
(2.00006 0.000714673 1.74258e-21)
(2.00008 0.000660248 -8.70547e-22)
(2.00009 0.000594563 -1.08363e-21)
(2.00011 0.00051926 8.6663e-22)
(2.00012 0.00043587 0)
(2.00013 0.000345885 0)
(2.00014 0.000250761 2.15394e-22)
(2.00014 0.000152015 0)
(2.00014 5.10276e-05 0)
(2.00052 -0.000112599 0)
(2.00052 -0.000338081 0)
(2.00052 -0.000563339 1.11599e-24)
(2.00052 -0.000788537 0)
(2.00051 -0.0010133 0)
(2.00051 -0.00123738 -2.19929e-22)
(2.00051 -0.00146034 -3.38853e-22)
(2.0005 -0.0016816 3.35655e-22)
(2.0005 -0.00190029 0)
(2.00048 -0.00211536 0)
(2.00047 -0.00232546 -4.87462e-22)
(2.00045 -0.00252862 2.96534e-21)
(2.00043 -0.00272387 -2.52044e-22)
(2.00041 -0.00290879 2.56202e-22)
(2.00037 -0.00308089 0)
(2.00034 -0.00323762 0)
(2.00029 -0.00337623 5.73553e-22)
(2.00025 -0.00349407 1.77003e-21)
(2.00019 -0.00358824 -8.82557e-22)
(2.00013 -0.00365542 0)
(2.00006 -0.00369334 0)
(1.99999 -0.00369994 0)
(1.99992 -0.0036732 0)
(1.99985 -0.00361191 -3.50692e-22)
(1.99977 -0.00351557 -9.21339e-24)
(1.9997 -0.00338446 -9.0013e-24)
(1.99963 -0.00321971 3.69019e-22)
(1.99956 -0.00302335 1.91465e-22)
(1.99951 -0.00279827 2.31473e-24)
(1.99946 -0.00254811 -1.96923e-22)
(1.99942 -0.00227727 6.11457e-22)
(1.99939 -0.00199078 -4.08433e-22)
(1.99937 -0.0016938 -4.20391e-22)
(1.99936 -0.00139173 4.20453e-22)
(1.99936 -0.00109001 4.29841e-22)
(1.99937 -0.000793772 -4.29902e-22)
(1.9994 -0.00050791 0)
(1.99943 -0.000236723 0)
(1.99947 1.60022e-05 -4.41061e-22)
(1.99951 0.000247148 4.41003e-22)
(1.99956 0.00045423 4.43165e-22)
(1.99962 0.000635467 -2.21767e-22)
(1.99967 0.000789655 0)
(1.99973 0.000916247 0)
(1.99979 0.00101523 0)
(1.99984 0.00108702 0)
(1.99989 0.00113247 0)
(1.99995 0.00115278 0)
(1.99999 0.00114936 -2.19659e-22)
(2.00004 0.00112387 -1.09369e-21)
(2.00008 0.00107814 8.74508e-22)
(2.00012 0.00101401 8.69952e-22)
(2.00015 0.000933299 -1.30436e-21)
(2.00018 0.000837905 8.65829e-22)
(2.0002 0.000730025 -8.65829e-22)
(2.00023 0.000611618 0)
(2.00024 0.000484634 0)
(2.00025 0.000350969 -3.2605e-25)
(2.00026 0.000212603 0)
(2.00027 7.13361e-05 0)
(2.00077 -0.000135304 -1.03577e-22)
(2.00077 -0.000406337 0)
(2.00077 -0.000677197 2.25629e-25)
(2.00076 -0.000948124 1.05854e-22)
(2.00076 -0.00121876 0)
(2.00076 -0.00148881 1.37194e-24)
(2.00075 -0.00175783 -2.22275e-22)
(2.00075 -0.00202512 2.22216e-22)
(2.00074 -0.00228972 0)
(2.00072 -0.00255038 0)
(2.0007 -0.00280555 2.37047e-22)
(2.00068 -0.00305272 9.71619e-22)
(2.00064 -0.00329053 -5.03283e-22)
(2.0006 -0.0035162 2.56207e-22)
(2.00056 -0.00372668 0)
(2.0005 -0.00391864 -2.76775e-22)
(2.00044 -0.00408867 2.76859e-22)
(2.00036 -0.00423345 1.52609e-23)
(2.00028 -0.00434899 -1.32642e-21)
(2.00019 -0.00443103 -3.1228e-22)
(2.00009 -0.00447682 3.0723e-22)
(1.99998 -0.00448354 -9.68879e-24)
(1.99987 -0.00444841 3.31781e-22)
(1.99976 -0.00436983 0)
(1.99964 -0.004247 0)
(1.99953 -0.0040802 0)
(1.99942 -0.00387086 0)
(1.99933 -0.00362155 -1.91446e-22)
(1.99924 -0.00333595 0)
(1.99916 -0.00301873 0)
(1.9991 -0.00267565 6.16837e-22)
(1.99906 -0.00231327 -4.11043e-22)
(1.99903 -0.00193821 0)
(1.99902 -0.00155749 0)
(1.99902 -0.00117811 0)
(1.99905 -0.000806696 0)
(1.99908 -0.000449498 4.39486e-22)
(1.99914 -0.0001119 2.32265e-24)
(1.9992 0.000201375 -6.63836e-22)
(1.99927 0.000486365 0)
(1.99935 0.000740068 0)
(1.99943 0.00096035 4.45283e-22)
(1.99952 0.00114587 -6.68343e-22)
(1.99961 0.00129609 0)
(1.99969 0.00141113 0)
(1.99978 0.00149167 0)
(1.99986 0.00153897 0)
(1.99994 0.0015546 0)
(2.00001 0.00154049 6.58297e-22)
(2.00008 0.00149884 1.74807e-21)
(2.00015 0.00143199 -1.74861e-21)
(2.0002 0.00134216 8.69355e-22)
(2.00025 0.00123168 -4.35209e-22)
(2.0003 0.0011032 0)
(2.00034 0.000959354 2.15763e-22)
(2.00037 0.000802528 0)
(2.00039 0.000635148 0)
(2.00041 0.000459574 -2.15031e-22)
(2.00042 0.000278225 0)
(2.00043 9.33247e-05 2.13607e-22)
(2.00106 -0.000157489 1.63978e-24)
(2.00106 -0.000473084 0)
(2.00106 -0.000788607 0)
(2.00106 -0.00110441 -1.0383e-22)
(2.00106 -0.00142019 0)
(2.00105 -0.00173566 1.07843e-22)
(2.00105 -0.00205038 -1.09621e-22)
(2.00104 -0.00236354 2.19261e-22)
(2.00102 -0.00267418 0)
(2.001 -0.00298081 -4.65776e-22)
(2.00097 -0.00328176 2.28755e-22)
(2.00094 -0.00357412 7.46285e-24)
(2.0009 -0.00385566 9.91355e-22)
(2.00084 -0.00412391 -5.14639e-22)
(2.00078 -0.00437481 -7.7637e-24)
(2.0007 -0.00460426 -1.4835e-22)
(2.00061 -0.00480818 2.81829e-21)
(2.00051 -0.00498234 -1.0978e-21)
(2.00039 -0.00512142 -1.922e-21)
(2.00026 -0.00522048 2.73712e-21)
(2.00012 -0.00527598 3.10632e-22)
(1.99997 -0.00528409 -3.3156e-22)
(1.99981 -0.00524116 -1.0144e-23)
(1.99965 -0.00514505 3.41784e-22)
(1.99948 -0.00499454 0)
(1.99932 -0.0047899 0)
(1.99917 -0.00453276 0)
(1.99903 -0.00422624 0)
(1.9989 -0.00387498 1.98126e-22)
(1.99879 -0.00348483 0)
(1.99871 -0.00306308 -6.15377e-22)
(1.99865 -0.00261805 0)
(1.99861 -0.00215814 4.26791e-22)
(1.9986 -0.00169218 -4.26888e-22)
(1.99861 -0.00122897 4.36359e-22)
(1.99864 -0.00077678 3.56218e-24)
(1.9987 -0.000343323 -8.8296e-22)
(1.99878 6.47516e-05 4.42834e-22)
(1.99887 0.000441651 -2.24261e-22)
(1.99897 0.000782611 4.46306e-22)
(1.99909 0.00108416 2.24487e-22)
(1.99921 0.0013438 0)
(1.99934 0.00156016 2.2308e-22)
(1.99946 0.00173276 0)
(1.99959 0.00186198 0)
(1.99971 0.0019489 2.22441e-22)
(1.99983 0.00199519 -2.21654e-22)
(1.99994 0.00200297 0)
(2.00005 0.00197473 2.63511e-21)
(2.00015 0.00191333 1.74225e-21)
(2.00024 0.00182161 -3.49845e-21)
(2.00032 0.00170221 -8.68578e-22)
(2.00039 0.00155815 1.95111e-21)
(2.00045 0.00139281 -8.65881e-22)
(2.00051 0.00120919 -2.15733e-22)
(2.00055 0.00101014 0)
(2.00059 0.000798609 4.28919e-22)
(2.00061 0.000577398 -2.14534e-22)
(2.00063 0.000349373 0)
(2.00064 0.000117162 -5.41473e-25)
(2.0014 -0.000179091 1.01923e-22)
(2.0014 -0.000538167 0)
(2.0014 -0.000897349 0)
(2.0014 -0.00125711 1.02259e-22)
(2.00139 -0.00161726 -1.20206e-24)
(2.00139 -0.00197756 1.04629e-22)
(2.00138 -0.00233766 -1.05869e-22)
(2.00137 -0.00269667 -3.29335e-22)
(2.00135 -0.0030536 2.19637e-22)
(2.00133 -0.00340681 -4.58822e-22)
(2.00129 -0.00375449 -1.26563e-22)
(2.00125 -0.00409362 7.0641e-22)
(2.00119 -0.00442099 -1.96982e-21)
(2.00112 -0.00473378 -1.02214e-21)
(2.00104 -0.00502759 1.02231e-21)
(2.00094 -0.00529738 -1.34523e-22)
(2.00082 -0.00553842 3.32726e-21)
(2.00068 -0.00574505 -5.43371e-22)
(2.00052 -0.00591104 -5.92781e-22)
(2.00034 -0.00603021 -1.84434e-21)
(2.00015 -0.006098 3.13825e-22)
(1.99995 -0.00610945 0)
(1.99973 -0.00605984 0)
(1.99951 -0.00594624 -3.52693e-22)
(1.99929 -0.00576694 -1.05033e-23)
(1.99907 -0.00552197 3.63356e-22)
(1.99886 -0.00521315 0)
(1.99867 -0.00484432 3.93179e-22)
(1.9985 -0.0044211 -5.91303e-22)
(1.99835 -0.00395067 0)
(1.99823 -0.00344219 2.0761e-22)
(1.99815 -0.00290608 -8.43307e-22)
(1.9981 -0.00235277 -5.94643e-24)
(1.99809 -0.00179327 8.67573e-22)
(1.99811 -0.0012385 4.28103e-24)
(1.99816 -0.000698533 -4.40838e-22)
(1.99824 -0.000182733 0)
(1.99835 0.000300759 4.48769e-22)
(1.99848 0.000745052 1.25425e-24)
(1.99863 0.00114455 -4.49804e-22)
(1.99879 0.00149536 -4.50625e-22)
(1.99896 0.00179468 0)
(1.99913 0.00204118 0)
(1.9993 0.00223463 -2.24786e-22)
(1.99948 0.00237575 0)
(1.99965 0.00246611 -4.45498e-22)
(1.99981 0.00250801 2.21602e-22)
(1.99996 0.00250419 -4.42247e-22)
(2.00011 0.00245786 -2.63963e-21)
(2.00024 0.00237259 -1.74779e-21)
(2.00036 0.00225155 8.74956e-22)
(2.00047 0.00209804 -3.41697e-24)
(2.00056 0.00191612 -1.30034e-21)
(2.00065 0.0017096 4.31643e-22)
(2.00072 0.00148185 0)
(2.00078 0.00123634 0)
(2.00083 0.000976457 -5.82292e-25)
(2.00086 0.000705458 0)
(2.00088 0.000426654 0)
(2.0009 0.000143051 -2.13029e-22)
(2.00178 -0.000200056 0)
(2.00178 -0.000601377 0)
(2.00178 -0.00100303 9.89248e-23)
(2.00178 -0.00140572 -1.01882e-22)
(2.00178 -0.00180938 0)
(2.00177 -0.00221387 -2.06091e-22)
(2.00176 -0.00261897 1.04087e-22)
(2.00175 -0.00302385 1.05747e-22)
(2.00173 -0.00342738 0)
(2.0017 -0.00382796 0)
(2.00166 -0.00422357 -3.47273e-22)
(2.00161 -0.00461117 2.26147e-22)
(2.00154 -0.00498683 9.7797e-22)
(2.00145 -0.00534665 2.95555e-21)
(2.00134 -0.00568681 0)
(2.00121 -0.00600073 -5.25545e-22)
(2.00106 -0.00628308 -2.20158e-21)
(2.00088 -0.00652643 -5.63204e-22)
(2.00068 -0.00672359 -1.18443e-21)
(2.00045 -0.00686689 2.87267e-22)
(2.0002 -0.00695059 -6.40271e-22)
(1.99993 -0.00696826 -1.11415e-23)
(1.99965 -0.00691378 -1.12572e-23)
(1.99935 -0.0067832 3.4236e-22)
(1.99906 -0.00657405 0)
(1.99877 -0.006286 0)
(1.99849 -0.00592108 0)
(1.99824 -0.00548373 1.96795e-22)
(1.99801 -0.00498077 -2.01825e-22)
(1.99782 -0.00442106 0)
(1.99766 -0.00381588 4.17838e-22)
(1.99756 -0.00317822 -4.23039e-22)
(1.9975 -0.00252093 0)
(1.99748 -0.00185763 0)
(1.99751 -0.00120165 6.6949e-22)
(1.99759 -0.000565313 -4.46017e-22)
(1.9977 4.01956e-05 -4.51763e-22)
(1.99785 0.000605037 9.04883e-22)
(1.99803 0.00112121 -4.53102e-22)
(1.99822 0.00158227 0)
(1.99844 0.00198387 6.79862e-22)
(1.99867 0.00232312 -4.53617e-22)
(1.9989 0.00259881 -2.2686e-22)
(1.99913 0.00281107 4.50721e-22)
(1.99936 0.00296123 0)
(1.99958 0.00305149 2.23059e-22)
(1.9998 0.00308488 -4.45323e-22)
(2 0.00306495 4.42096e-22)
(2.00018 0.00299585 -1.75266e-21)
(2.00036 0.00288172 8.82669e-22)
(2.00051 0.00272625 4.34394e-22)
(2.00065 0.00253373 2.16551e-22)
(2.00078 0.00230906 -2.16565e-22)
(2.00089 0.00205639 -2.15477e-22)
(2.00098 0.0017797 4.2843e-22)
(2.00106 0.00148298 -5.84228e-25)
(2.00112 0.00117011 -4.27421e-22)
(2.00116 0.000844757 2.12637e-22)
(2.00119 0.000510651 0)
(2.00121 0.000171178 0)
(2.0022 -0.000220271 0)
(2.0022 -0.000662376 0)
(2.0022 -0.00110515 -1.95363e-22)
(2.0022 -0.00154954 0)
(2.0022 -0.00199568 0)
(2.0022 -0.00244362 2.465e-24)
(2.00219 -0.00289325 0)
(2.00218 -0.00334393 -1.05433e-22)
(2.00216 -0.00379451 -1.07538e-22)
(2.00212 -0.00424333 1.0773e-22)
(2.00208 -0.0046883 -4.53187e-22)
(2.00201 -0.00512632 4.53112e-22)
(2.00193 -0.00555308 0)
(2.00182 -0.00596337 -2.94051e-21)
(2.00169 -0.00635416 -4.65587e-22)
(2.00153 -0.00671701 5.89168e-22)
(2.00134 -0.00704565 -3.19866e-21)
(2.00112 -0.00733096 1.13346e-21)
(2.00086 -0.00756483 -5.70259e-22)
(2.00057 -0.00773759 0)
(2.00026 -0.00784213 -6.23654e-22)
(1.99991 -0.00787002 0)
(1.99955 -0.00781345 -3.42563e-22)
(1.99917 -0.00766705 3.42655e-22)
(1.99879 -0.00742725 -3.66669e-22)
(1.99842 -0.00709322 1.79797e-22)
(1.99806 -0.00666698 0)
(1.99773 -0.00615374 -1.96798e-22)
(1.99743 -0.0055617 6.10228e-22)
(1.99718 -0.00490157 2.09033e-22)
(1.99699 -0.00418741 -4.34199e-22)
(1.99685 -0.00343525 -2.25243e-22)
(1.99678 -0.00266096 4.36159e-22)
(1.99677 -0.00188126 0)
(1.99681 -0.00111239 2.28474e-22)
(1.99692 -0.00036923 3.16783e-24)
(1.99707 0.0003349 2.21711e-24)
(1.99727 0.000988159 -4.57156e-22)
(1.9975 0.00158142 4.58847e-22)
(1.99776 0.00210741 -6.89323e-22)
(1.99805 0.00256141 2.30203e-22)
(1.99834 0.00294058 0)
(1.99864 0.00324404 2.26825e-22)
(1.99894 0.00347254 -2.25925e-22)
(1.99924 0.00362813 0)
(1.99952 0.00371393 0)
(1.9998 0.00373395 4.45179e-22)
(2.00005 0.00369267 -6.80783e-24)
(2.00029 0.00359536 -1.03324e-23)
(2.00051 0.00344649 1.74676e-21)
(2.00071 0.00325063 4.35726e-22)
(2.00089 0.00301352 2.1647e-22)
(2.00104 0.00274046 2.15125e-22)
(2.00118 0.0024361 -9.05802e-25)
(2.00129 0.0021051 -2.14953e-22)
(2.00139 0.00175196 0)
(2.00146 0.00138097 0)
(2.00152 0.000996273 -4.24312e-22)
(2.00156 0.000601965 0)
(2.00158 0.000201749 0)
(2.00266 -0.000239602 0)
(2.00266 -0.0007208 0)
(2.00267 -0.00120306 8.98533e-25)
(2.00267 -0.00168769 9.55167e-23)
(2.00267 -0.00217505 0)
(2.00267 -0.00266549 9.95401e-23)
(2.00266 -0.00315908 1.00771e-22)
(2.00265 -0.00365539 2.04145e-24)
(2.00263 -0.0041534 2.40071e-24)
(2.0026 -0.00465152 -1.07741e-22)
(2.00254 -0.00514749 1.0772e-22)
(2.00247 -0.00563823 1.10812e-22)
(2.00238 -0.00611955 -2.2859e-22)
(2.00225 -0.0065847 -1.88982e-21)
(2.0021 -0.00703038 -5.08017e-22)
(2.0019 -0.00744786 2.04355e-21)
(2.00167 -0.00782881 1.61483e-21)
(2.0014 -0.00816301 -1.10606e-21)
(2.00108 -0.00844076 1.14968e-21)
(2.00073 -0.00865003 1.79164e-21)
(2.00033 -0.00878198 3.06287e-22)
(1.9999 -0.00882563 -5.63658e-24)
(1.99944 -0.00877105 -3.42806e-22)
(1.99897 -0.00861094 6.98728e-22)
(1.99849 -0.00834022 -3.55946e-22)
(1.99801 -0.00795718 1.86981e-22)
(1.99755 -0.00746373 0)
(1.99713 -0.00686579 2.01159e-22)
(1.99676 -0.00617325 2.13569e-22)
(1.99644 -0.00539915 -2.04166e-22)
(1.9962 -0.00456091 2.14617e-22)
(1.99603 -0.0036783 2.18043e-22)
(1.99594 -0.00277092 2.24234e-22)
(1.99593 -0.00185944 -4.49802e-22)
(1.996 -0.000963365 0)
(1.99614 -0.000100764 -4.62142e-22)
(1.99634 0.000712448 -1.89191e-24)
(1.9966 0.00146238 4.63552e-22)
(1.99691 0.0021387 -4.64333e-22)
(1.99724 0.00273326 -2.08615e-24)
(1.99761 0.00324119 3.79861e-25)
(1.99798 0.00365989 -6.9137e-22)
(1.99837 0.00398905 4.59665e-22)
(1.99875 0.00423033 -2.28775e-22)
(1.99912 0.00438684 -2.27169e-22)
(1.99948 0.00446283 -8.96995e-22)
(1.99982 0.00446357 2.67829e-21)
(2.00014 0.00439461 7.48857e-24)
(2.00043 0.00426238 3.5368e-21)
(2.0007 0.00407214 1.31178e-21)
(2.00095 0.00382949 -2.19571e-22)
(2.00117 0.00354141 -4.3324e-22)
(2.00136 0.00321365 -2.14461e-22)
(2.00152 0.00285151 2.14486e-22)
(2.00167 0.0024603 -2.13384e-22)
(2.00178 0.00204499 -2.1192e-22)
(2.00187 0.00161036 2.1196e-22)
(2.00194 0.00116091 6.44444e-25)
(2.00199 0.000701108 2.11059e-22)
(2.00201 0.000234935 0)
(2.00316 -0.0002579 0)
(2.00316 -0.000776178 0)
(2.00317 -0.00129602 0)
(2.00317 -0.00181913 -9.3544e-23)
(2.00318 -0.0023462 9.35213e-23)
(2.00318 -0.00287796 -9.61161e-23)
(2.00318 -0.0034147 9.60927e-23)
(2.00317 -0.00395634 0)
(2.00315 -0.00450206 0)
(2.00312 -0.00505045 1.0479e-22)
(2.00306 -0.00559933 -2.12534e-22)
(2.00299 -0.0061453 -3.01996e-24)
(2.00288 -0.00668458 4.65133e-22)
(2.00274 -0.00720964 1.43018e-21)
(2.00256 -0.00771526 9.85684e-22)
(2.00233 -0.00819459 -9.87191e-22)
(2.00206 -0.00863563 -1.05088e-21)
(2.00173 -0.00902743 6.68266e-22)
(2.00135 -0.00935825 -5.63132e-22)
(2.00092 -0.00961345 -2.52083e-23)
(2.00043 -0.0097813 -1.2613e-21)
(1.9999 -0.00984788 2.55666e-21)
(1.99934 -0.00980112 -3.29155e-22)
(1.99874 -0.00963082 0)
(1.99814 -0.00932968 0)
(1.99754 -0.00889463 0)
(1.99697 -0.00832725 0)
(1.99644 -0.00763417 -2.01171e-22)
(1.99597 -0.00682737 2.17668e-22)
(1.99557 -0.00592261 4.72011e-24)
(1.99527 -0.00494162 0)
(1.99506 -0.00390891 2.25101e-22)
(1.99496 -0.00284877 -2.25891e-22)
(1.99496 -0.00178658 2.32999e-22)
(1.99505 -0.000746057 4.67515e-22)
(1.99524 0.000251106 -7.04106e-22)
(1.99551 0.00118582 -4.71223e-22)
(1.99584 0.00204201 2.33217e-22)
(1.99623 0.00280798 0)
(1.99666 0.00347496 2.33432e-22)
(1.99712 0.00403805 -2.78314e-24)
(1.99759 0.00449523 -2.40673e-24)
(1.99807 0.00484716 -2.32233e-22)
(1.99855 0.00509673 -4.58957e-22)
(1.99901 0.00524845 6.84225e-22)
(1.99945 0.00530808 -1.79959e-21)
(1.99987 0.0052825 1.79892e-21)
(2.00026 0.00517851 -3.55136e-21)
(2.00062 0.00500357 3.96541e-21)
(2.00094 0.00476427 -1.31409e-21)
(2.00124 0.00446748 0)
(2.0015 0.00412121 2.14932e-22)
(2.00173 0.00373171 -2.14954e-22)
(2.00193 0.00330508 0)
(2.0021 0.00284723 0)
(2.00224 0.00236361 0)
(2.00235 0.00185944 0)
(2.00243 0.00133946 0)
(2.00249 0.000808548 0)
(2.00252 0.000270882 0)
(2.00369 -0.000274995 0)
(2.0037 -0.000828001 0)
(2.00371 -0.00138317 0)
(2.00372 -0.0019427 0)
(2.00373 -0.00250761 0)
(2.00374 -0.00307919 9.29081e-23)
(2.00374 -0.00365802 -1.87466e-22)
(2.00374 -0.00424445 9.45666e-23)
(2.00372 -0.00483804 -9.88692e-23)
(2.00369 -0.00543759 -2.65713e-24)
(2.00364 -0.00604116 1.01481e-22)
(2.00356 -0.00664535 0)
(2.00344 -0.00724642 -2.23937e-22)
(2.00329 -0.00783711 -7.03152e-22)
(2.00308 -0.00841003 4.7092e-21)
(2.00282 -0.0089587 -1.92602e-21)
(2.00251 -0.00946878 1.02265e-21)
(2.00212 -0.00992851 -2.61966e-24)
(2.00167 -0.0103236 7.01234e-22)
(2.00116 -0.0106364 -1.19118e-21)
(2.00057 -0.0108511 -2.43248e-21)
(1.99992 -0.0109512 -3.58563e-24)
(1.99923 -0.0109208 0)
(1.9985 -0.0107459 -3.58339e-22)
(1.99775 -0.0104161 -1.51556e-23)
(1.99701 -0.00992638 3.73922e-22)
(1.99629 -0.00927753 0)
(1.99563 -0.00847696 0)
(1.99504 -0.00753903 -2.05526e-22)
(1.99455 -0.00648314 -4.30702e-22)
(1.99418 -0.00533632 4.51751e-22)
(1.99393 -0.00412921 -2.26112e-22)
(1.99381 -0.00289208 0)
(1.99383 -0.00165609 -7.06518e-22)
(1.99396 -0.00045008 2.32818e-22)
(1.99421 0.000699648 4.74149e-22)
(1.99455 0.00177039 -4.78714e-22)
(1.99498 0.00274382 2.37743e-22)
(1.99547 0.00360672 2.3627e-22)
(1.99602 0.0043499 -7.17336e-22)
(1.99659 0.00496886 -3.09344e-24)
(1.99718 0.00546251 -2.6485e-24)
(1.99777 0.00583302 2.32138e-22)
(1.99835 0.00608494 -1.78077e-24)
(1.99891 0.00622479 0)
(1.99945 0.00626013 1.26063e-23)
(1.99995 0.00619976 1.80364e-21)
(2.00042 0.00605176 -3.56003e-21)
(2.00085 0.00582501 2.19579e-22)
(2.00124 0.00552809 -2.19372e-22)
(2.00159 0.00516889 0)
(2.0019 0.00475632 2.14123e-22)
(2.00218 0.00429739 -2.14148e-22)
(2.00241 0.003799 0)
(2.00261 0.00326761 0)
(2.00277 0.00270907 0)
(2.0029 0.00212904 2.08878e-22)
(2.00299 0.00153251 -2.08924e-22)
(2.00306 0.000924634 0)
(2.0031 0.000309699 0)
(2.00426 -0.0002907 0)
(2.00427 -0.00087564 0)
(2.00428 -0.00146349 0)
(2.0043 -0.00205695 0)
(2.00431 -0.0026575 0)
(2.00433 -0.00326703 -8.94061e-23)
(2.00435 -0.00388654 1.8042e-22)
(2.00435 -0.00451692 1.97018e-24)
(2.00435 -0.00515825 2.29098e-24)
(2.00432 -0.00580966 1.00497e-22)
(2.00427 -0.0064697 -2.96509e-22)
(2.00419 -0.00713516 -3.38758e-24)
(2.00407 -0.00780226 1.04166e-22)
(2.0039 -0.00846422 -2.25327e-22)
(2.00368 -0.00911255 -1.37383e-21)
(2.00339 -0.00973919 -1.42278e-21)
(2.00303 -0.0103298 -3.60469e-23)
(2.00259 -0.0108703 1.01249e-22)
(2.00206 -0.0113435 3.97153e-22)
(2.00145 -0.0117288 -1.75046e-21)
(2.00075 -0.0120053 -1.78342e-21)
(1.99998 -0.012153 -6.38249e-22)
(1.99913 -0.0121509 0)
(1.99824 -0.0119796 -3.59638e-22)
(1.99732 -0.0116248 -1.6676e-23)
(1.9964 -0.0110784 3.76823e-22)
(1.99552 -0.0103398 2.02328e-22)
(1.9947 -0.00941699 0)
(1.99397 -0.00832742 4.36723e-22)
(1.99337 -0.00709492 -6.7556e-22)
(1.99291 -0.00575359 2.25822e-22)
(1.99261 -0.00434187 -4.71792e-22)
(1.99248 -0.00289765 7.10104e-22)
(1.99251 -0.00145957 5.2241e-24)
(1.9927 -6.26906e-05 -2.43933e-22)
(1.99302 0.00126101 2.41835e-22)
(1.99346 0.00248476 0)
(1.99401 0.00358769 0)
(1.99463 0.00455527 -2.44166e-22)
(1.9953 0.00537815 4.81176e-22)
(1.99601 0.00605272 2.38369e-22)
(1.99673 0.00657942 -2.887e-24)
(1.99745 0.00696262 -4.73236e-22)
(1.99816 0.00720914 -6.94441e-22)
(1.99883 0.00732811 2.77345e-21)
(1.99948 0.00732943 -1.81701e-21)
(2.00008 0.00722376 8.95085e-22)
(2.00064 0.00702126 2.66347e-21)
(2.00114 0.00673266 -3.08472e-21)
(2.0016 0.00636848 -4.38161e-22)
(2.00201 0.00593744 0)
(2.00238 0.00544966 -2.13138e-22)
(2.00269 0.00491293 2.13177e-22)
(2.00296 0.00433494 0)
(2.00319 0.00372265 2.08993e-22)
(2.00338 0.00308229 -2.09034e-22)
(2.00353 0.00241986 0)
(2.00364 0.00174049 0)
(2.00371 0.00104958 0)
(2.00375 0.000351461 0)
(2.00486 -0.000304801 0)
(2.00487 -0.000918471 0)
(2.00489 -0.00153593 0)
(2.00491 -0.00216036 0)
(2.00494 -0.00279388 0)
(2.00497 -0.00343902 0)
(2.00499 -0.00409731 -8.71977e-23)
(2.00501 -0.00477037 -1.91279e-24)
(2.00502 -0.00545886 -9.35322e-23)
(2.005 -0.0061626 8.86814e-23)
(2.00496 -0.00688065 -9.97533e-23)
(2.00489 -0.00761029 1.93522e-22)
(2.00477 -0.00834798 -2.07844e-22)
(2.0046 -0.00908747 -8.58141e-24)
(2.00436 -0.00981969 1.98098e-21)
(2.00404 -0.010535 -4.72989e-22)
(2.00364 -0.0112195 -9.90963e-22)
(2.00314 -0.0118561 -1.58413e-22)
(2.00254 -0.0124248 -2.81963e-23)
(2.00182 -0.0129013 1.66908e-21)
(2.001 -0.013259 7.09321e-23)
(2.00008 -0.0134732 -3.24048e-22)
(1.99906 -0.0135157 4.90564e-22)
(1.99798 -0.0133605 1.75864e-22)
(1.99685 -0.0129873 0)
(1.99572 -0.0123833 1.95745e-22)
(1.99463 -0.0115458 -2.02319e-22)
(1.99362 -0.0104832 4.33256e-22)
(1.99272 -0.0092166 -6.45964e-22)
(1.99198 -0.00777579 6.88092e-22)
(1.99142 -0.00620386 -2.31557e-22)
(1.99107 -0.00454977 4.84794e-22)
(1.99093 -0.00286122 -2.43741e-22)
(1.99099 -0.00118616 7.49435e-22)
(1.99124 0.000432227 3.06835e-24)
(1.99166 0.00195523 -7.54147e-22)
(1.99222 0.00335165 -5.00317e-22)
(1.99291 0.00459775 4.99843e-22)
(1.99368 0.00567791 0)
(1.99452 0.00658324 2.43907e-22)
(1.99539 0.00731163 -2.45426e-22)
(1.99627 0.007866 -2.45438e-22)
(1.99714 0.00825366 -5.03638e-24)
(1.99799 0.00848466 0)
(1.99879 0.00857163 1.86867e-21)
(1.99956 0.00852702 -3.6627e-21)
(2.00026 0.00836355 -1.35741e-21)
(2.00091 0.00809417 -4.48012e-22)
(2.00151 0.00773223 2.18592e-22)
(2.00204 0.00728967 -1.51911e-21)
(2.00251 0.00677624 6.46374e-22)
(2.00293 0.00620355 -2.13977e-22)
(2.00329 0.00558 0)
(2.0036 0.00491407 0)
(2.00386 0.00421313 0)
(2.00407 0.00348371 -2.06317e-22)
(2.00424 0.00273211 8.60052e-25)
(2.00437 0.00196354 2.05592e-22)
(2.00445 0.00118346 0)
(2.0045 0.000396191 0)
(2.00548 -0.000317029 -7.75111e-23)
(2.0055 -0.000955734 7.77462e-23)
(2.00552 -0.0015992 0)
(2.00556 -0.00225113 -7.93262e-23)
(2.00559 -0.00291438 7.93007e-23)
(2.00564 -0.00359221 0)
(2.00568 -0.00428688 8.3052e-23)
(2.00571 -0.00500076 1.83231e-24)
(2.00574 -0.00573535 -1.71809e-22)
(2.00574 -0.00649132 -9.19725e-23)
(2.00572 -0.00726852 8.65332e-23)
(2.00566 -0.00806505 9.22966e-23)
(2.00555 -0.0088779 0)
(2.00538 -0.00970144 0)
(2.00513 -0.010527 -2.34416e-22)
(2.00479 -0.0113431 -6.72637e-22)
(2.00435 -0.0121368 9.31308e-22)
(2.0038 -0.0128877 -7.53492e-22)
(2.00311 -0.0135731 -2.98383e-23)
(2.00229 -0.0141643 1.07956e-21)
(2.00133 -0.0146282 4.15788e-21)
(2.00024 -0.014934 -6.42443e-22)
(1.99903 -0.0150439 4.65782e-22)
(1.99772 -0.0149229 1.65802e-22)
(1.99635 -0.0145421 0)
(1.99496 -0.0138819 -1.95697e-22)
(1.99362 -0.0129357 0)
(1.99236 -0.0117123 2.21602e-22)
(1.99126 -0.0102372 8.49623e-24)
(1.99035 -0.00854801 -9.36879e-22)
(1.98968 -0.0067 1.47224e-21)
(1.98926 -0.00475583 1.00584e-23)
(1.98911 -0.00277646 -5.00541e-22)
(1.98921 -0.000821483 8.0959e-24)
(1.98955 0.00105551 -2.53681e-22)
(1.9901 0.00280784 7.68628e-22)
(1.99082 0.0043993 0)
(1.99168 0.00580338 0)
(1.99264 0.0070038 -5.03935e-22)
(1.99367 0.00799286 5.50346e-24)
(1.99473 0.00877093 9.92182e-22)
(1.99579 0.00934477 -6.64396e-24)
(1.99684 0.0097258 -5.26344e-24)
(1.99784 0.00992832 1.89889e-21)
(1.9988 0.00996923 -1.11731e-20)
(1.99969 0.00986354 4.56928e-21)
(2.00052 0.0096271 8.94389e-22)
(2.00127 0.00927715 0)
(2.00195 0.00882867 0)
(2.00256 0.00829505 8.67454e-22)
(2.0031 0.00768771 2.12756e-22)
(2.00357 0.00701952 -2.12772e-22)
(2.00398 0.00629952 0)
(2.00433 0.00553684 -2.0689e-22)
(2.00462 0.0047392 2.06937e-22)
(2.00486 0.00391338 0)
(2.00505 0.00306575 0)
(2.00519 0.00220152 2.02878e-22)
(2.00528 0.00132616 -2.02962e-22)
(2.00533 0.000443847 0)
(2.00613 -0.00032716 0)
(2.00615 -0.000986649 0)
(2.00618 -0.0016519 7.44573e-23)
(2.00623 -0.0023273 -7.44328e-23)
(2.00628 -0.00301646 0)
(2.00634 -0.00372337 0)
(2.0064 -0.00445129 -7.86034e-23)
(2.00646 -0.00520337 -1.72466e-24)
(2.00651 -0.0059822 1.62582e-22)
(2.00654 -0.00678956 -8.22818e-23)