/*--------------------------------*- C++ -*----------------------------------*\
  =========                 |
  \\      /  F ield         | OpenFOAM: The Open Source CFD Toolbox
   \\    /   O peration     | Website:  https://openfoam.org
    \\  /    A nd           | Version:  12
     \\/     M anipulation  |
\*---------------------------------------------------------------------------*/
FoamFile
{
    format      ascii;
    class       volScalarField;
    location    "0";
    object      yPlus;
}
// * * * * * * * * * * * * * * * * * * * * * * * * * * * * * * * * * * * * * //

dimensions      [];

internalField   uniform 0;

boundaryField
{
    topAndBottom
    {
        type            calculated;
        value           uniform 0;
    }
    inlet
    {
        type            calculated;
        value           uniform 0;
    }
    outlet
    {
        type            calculated;
        value           uniform 0;
    }
    front
    {
        type            empty;
    }
    back
    {
        type            empty;
    }
    airfoil
    {
        type            calculated;
        value           nonuniform List<scalar> 
379
(
47.8352
47.8145
47.8155
47.8391
47.8134
47.8148
47.8155
47.7892
47.7883
47.8134
47.7879
47.7883
47.814
47.6333
47.8299
47.8186
47.7869
47.8137
47.7869
47.7869
47.7878
47.7915
47.8007
47.7878
47.8149
47.8032
47.7777
47.8044
47.8258
47.8123
47.7746
47.8
47.7986
47.7808
47.8017
47.825
47.7964
47.8112
47.8571
47.8314
47.8598
47.8559
47.8191
47.8258
47.8167
47.8422
47.8243
47.8199
47.8426
47.8035
47.8003
47.8233
47.8274
47.839
47.8277
47.808
47.8159
47.7998
47.8171
47.804
47.8455
47.8064
47.8288
47.7912
47.8013
47.8132
47.8491
47.8069
47.8394
47.8122
47.8008
47.8223
47.8039
47.8495
47.8243
47.8092
47.7891
47.7941
47.8042
47.7852
47.8219
47.8254
47.8641
47.8445
47.8582
47.8333
47.8323
47.8094
47.8207
47.7974
47.833
47.8076
47.7983
47.846
47.8088
47.7893
47.7917
47.8123
47.8321
47.82
47.8653
47.8393
47.8416
47.8291
47.8263
47.8088
47.8409
47.8339
47.8297
47.8476
47.8231
47.8135
47.8291
47.8336
47.8235
47.8375
47.8247
47.8155
47.8465
47.8688
47.8364
47.8606
47.8474
47.8418
47.8156
47.8113
47.8277
47.82
47.8303
47.8403
47.7967
47.8214
47.8234
47.8334
47.8475
47.8168
47.8357
47.8228
47.8155
47.8152
47.824
47.8364
47.8521
47.8499
47.8197
47.8047
47.8467
47.8408
47.8632
47.8043
47.8166
47.8405
47.8097
47.8058
47.8625
47.824
47.7966
47.8501
47.8541
47.849
47.823
47.8296
47.8049
47.808
47.8366
47.8111
47.7911
47.8054
47.8305
47.8131
47.83
47.8321
47.8016
47.8183
47.8372
47.7984
47.824
47.8173
47.8344
47.8106
47.8251
47.8264
47.852
47.8339
47.832
47.7942
47.8194
47.8321
47.8259
47.835
47.84
47.8166
47.8413
47.8052
47.836
47.8727
47.8185
47.8045
47.8375
47.8091
47.85
47.8478
47.8474
47.788
47.788
47.7869
47.8155
47.8131
47.8403
47.7869
47.7869
47.7869
45.8864
44.5603
47.8894
47.7892
47.8119
47.8119
47.8391
47.8535
47.8143
47.5699
47.8118
47.8279
47.7777
47.8007
47.8007
47.7817
47.815
47.7869
47.7869
47.8167
47.8529
47.8007
47.7868
47.8007
47.814
47.8529
47.7945
47.7888
47.8196
47.7933
47.7861
47.8203
47.8109
47.8322
47.8052
47.7998
47.8082
47.7938
47.7836
47.8343
47.798
47.7982
47.804
47.8109
47.8653
47.869
47.7981
47.813
47.8071
47.8112
47.8431
47.7891
47.8276
47.8315
47.8184
47.8348
47.8536
47.8089
47.8321
47.8065
47.8404
47.8261
47.7975
47.8117
47.8211
47.8525
47.7942
47.798
47.8302
47.8089
47.828
47.8421
47.8094
47.8022
47.8275
47.8046
47.8146
47.8273
47.803
47.8092
47.8313
47.8352
47.81
47.8225
47.8334
47.8228
47.8085
47.8307
47.8018
47.8485
47.8463
47.8056
47.841
47.8503
47.8355
47.8094
47.8458
47.8278
47.8407
47.8479
47.8311
47.821
47.8559
47.8075
47.8253
47.8352
47.7972
47.7906
47.8256
47.8275
47.8455
47.8408
47.8391
47.8311
47.8319
47.8199
47.8276
47.8367
47.8357
47.8137
47.807
47.8071
47.8237
47.7995
47.8487
47.8611
47.8665
47.8029
47.8236
47.8344
47.8447
47.8426
47.8317
47.8385
47.8244
47.8232
47.8319
47.8012
47.805
47.8104
47.8031
47.8206
47.8235
47.8222
47.8209
47.8029
47.8623
47.8691
47.8104
47.8295
47.8289
47.8311
47.8106
47.8192
47.8296
47.8122
47.8263
47.818
47.8512
47.8309
47.8215
47.7928
47.8481
47.8251
47.8217
47.8289
47.8227
)
;
    }
}


// ************************************************************************* //
