/*--------------------------------*- C++ -*----------------------------------*\
  =========                 |
  \\      /  F ield         | OpenFOAM: The Open Source CFD Toolbox
   \\    /   O peration     | Website:  https://openfoam.org
    \\  /    A nd           | Version:  12
     \\/     M anipulation  |
\*---------------------------------------------------------------------------*/
FoamFile
{
    format      ascii;
    class       volScalarField;
    location    "260";
    object      k;
}
// * * * * * * * * * * * * * * * * * * * * * * * * * * * * * * * * * * * * * //

dimensions      [0 2 -2 0 0 0 0];

internalField   nonuniform List<scalar> 
16227
(
0.00914646
0.00914648
0.00914647
0.00914651
0.0091465
0.00914654
0.00914653
0.00914651
0.00914651
0.00914653
0.00914657
0.00914659
0.00914665
0.00914665
0.00914665
0.00914665
0.00914665
0.00914665
0.00914665
0.00914665
0.00914665
0.00914665
0.00914665
0.00914665
0.00914665
0.00914665
0.00914665
0.00914666
0.00914667
0.00914664
0.00914665
0.00914665
0.00914665
0.00914665
0.00914665
0.00914665
0.00914665
0.00914665
0.00914665
0.00914665
0.00914665
0.00914665
0.00914665
0.00914665
0.00914665
0.00914665
0.00914665
0.00914663
0.00914662
0.00914662
0.00914662
0.00914661
0.00914654
0.00914654
0.00914649
0.00914649
0.00914651
0.00914649
0.00914647
0.00914646
0.00848122
0.00848124
0.00848123
0.00848126
0.00848127
0.0084813
0.00848129
0.00848127
0.00848128
0.00848129
0.00848134
0.00848136
0.00848151
0.00848157
0.00848158
0.00848158
0.00848158
0.00848158
0.00848158
0.00848158
0.00848159
0.0084816
0.0084816
0.0084816
0.0084816
0.0084816
0.0084816
0.0084816
0.00848158
0.00848153
0.00848158
0.0084816
0.00848161
0.00848161
0.0084816
0.0084816
0.00848158
0.00848158
0.00848158
0.00848158
0.00848159
0.00848159
0.00848159
0.00848157
0.00848157
0.00848156
0.00848156
0.00848156
0.00848156
0.00848155
0.00848152
0.00848147
0.00848135
0.00848133
0.0084813
0.00848128
0.00848131
0.00848123
0.00848125
0.00848122
0.00790074
0.00790076
0.00790076
0.00790078
0.00790077
0.00790086
0.00790081
0.0079008
0.00790081
0.00790082
0.00790086
0.00790088
0.00790113
0.00790119
0.0079012
0.00790121
0.00790121
0.0079012
0.00790123
0.00790117
0.00790121
0.00790122
0.00790121
0.00790121
0.00790121
0.00790121
0.00790121
0.00790122
0.00790121
0.00790114
0.0079012
0.00790122
0.00790122
0.00790123
0.00790124
0.00790124
0.00790124
0.00790123
0.00790122
0.00790123
0.00790123
0.00790124
0.00790123
0.00790122
0.00790122
0.00790122
0.00790121
0.00790121
0.0079012
0.00790118
0.00790114
0.00790094
0.00790087
0.00790085
0.00790083
0.00790083
0.00790086
0.00790076
0.00790078
0.00790075
0.00739021
0.00739023
0.00739024
0.00739025
0.00739025
0.00739032
0.00739032
0.00739028
0.00739029
0.00739028
0.00739033
0.00739038
0.00739064
0.00739072
0.00739073
0.00739075
0.00739075
0.00739076
0.0073907
0.00739057
0.00739068
0.00739072
0.00739071
0.00739072
0.00739073
0.00739073
0.00739072
0.00739072
0.00739071
0.00739062
0.00739071
0.00739073
0.00739073
0.00739074
0.00739075
0.00739076
0.00739077
0.00739077
0.00739078
0.00739078
0.00739079
0.00739079
0.00739079
0.0073908
0.00739079
0.00739079
0.00739079
0.00739079
0.00739079
0.00739076
0.00739064
0.00739044
0.00739034
0.00739036
0.00739036
0.00739038
0.00739035
0.00739028
0.00739028
0.00739026
0.00693805
0.00693807
0.00693807
0.00693809
0.00693809
0.00693815
0.00693817
0.00693811
0.00693812
0.00693812
0.00693815
0.0069382
0.00693845
0.00693857
0.00693859
0.00693858
0.00693859
0.00693856
0.00693834
0.00693827
0.00693846
0.00693853
0.00693853
0.00693852
0.00693851
0.0069385
0.0069385
0.00693851
0.00693849
0.0069384
0.0069385
0.00693853
0.00693855
0.00693856
0.00693857
0.00693859
0.00693861
0.00693863
0.00693865
0.00693866
0.00693868
0.00693869
0.00693869
0.00693869
0.0069387
0.00693871
0.00693871
0.00693871
0.00693871
0.00693862
0.00693838
0.00693827
0.00693819
0.00693822
0.00693824
0.00693828
0.00693822
0.00693815
0.00693815
0.00693813
0.00653504
0.00653506
0.00653506
0.00653507
0.00653507
0.00653512
0.00653515
0.0065351
0.00653507
0.00653506
0.00653507
0.0065351
0.00653521
0.00653549
0.00653554
0.00653555
0.00653554
0.00653543
0.00653519
0.00653515
0.00653536
0.00653542
0.0065354
0.00653539
0.00653538
0.00653538
0.00653538
0.00653537
0.00653535
0.00653526
0.00653537
0.00653541
0.00653544
0.00653547
0.0065355
0.00653553
0.00653556
0.00653559
0.00653561
0.00653564
0.00653566
0.00653568
0.0065357
0.00653573
0.00653573
0.00653574
0.00653575
0.00653576
0.00653575
0.00653561
0.00653537
0.00653525
0.00653521
0.00653526
0.00653531
0.00653529
0.00653524
0.00653517
0.00653517
0.00653516
0.00617379
0.00617381
0.0061738
0.00617381
0.00617381
0.00617384
0.00617388
0.00617385
0.0061738
0.00617379
0.00617376
0.00617375
0.00617385
0.0061741
0.00617422
0.00617423
0.00617419
0.00617388
0.00617375
0.00617375
0.00617396
0.006174
0.00617398
0.00617396
0.00617394
0.00617393
0.00617392
0.00617392
0.0061739
0.00617381
0.00617393
0.00617398
0.00617402
0.00617406
0.00617411
0.00617415
0.0061742
0.00617425
0.0061743
0.00617435
0.00617438
0.00617442
0.00617445
0.00617447
0.00617451
0.00617452
0.00617453
0.00617455
0.00617448
0.00617421
0.00617408
0.00617399
0.006174
0.00617406
0.00617407
0.00617407
0.00617402
0.00617396
0.00617397
0.00617395
0.0058483
0.0058483
0.0058483
0.00584831
0.00584829
0.00584832
0.00584835
0.00584834
0.00584828
0.00584823
0.00584819
0.00584814
0.00584817
0.00584829
0.00584856
0.00584863
0.00584855
0.00584819
0.00584807
0.00584805
0.00584826
0.0058483
0.00584825
0.00584822
0.00584818
0.00584817
0.00584816
0.00584815
0.00584813
0.00584804
0.00584817
0.00584824
0.0058483
0.00584835
0.00584841
0.00584848
0.00584855
0.00584862
0.00584869
0.00584875
0.00584882
0.00584886
0.00584891
0.00584896
0.005849
0.00584902
0.00584905
0.00584905
0.00584893
0.00584867
0.00584855
0.00584851
0.00584856
0.0058486
0.00584859
0.00584859
0.00584855
0.00584849
0.0058485
0.00584848
0.00555364
0.00555363
0.00555363
0.00555363
0.00555362
0.00555363
0.00555365
0.00555362
0.00555359
0.00555352
0.00555346
0.00555338
0.00555337
0.00555344
0.00555376
0.00555383
0.00555365
0.00555331
0.00555319
0.00555315
0.00555335
0.00555336
0.0055533
0.00555324
0.0055532
0.00555317
0.00555315
0.00555314
0.00555312
0.00555304
0.00555317
0.00555326
0.00555333
0.00555341
0.00555349
0.00555358
0.00555368
0.00555378
0.00555386
0.00555395
0.00555403
0.00555412
0.00555418
0.00555424
0.00555429
0.00555435
0.00555437
0.00555431
0.00555405
0.00555392
0.00555385
0.00555389
0.0055539
0.00555394
0.00555394
0.00555394
0.00555391
0.00555385
0.00555386
0.00555385
0.00528573
0.00528573
0.00528572
0.00528572
0.00528569
0.0052857
0.00528571
0.00528567
0.00528563
0.00528558
0.00528549
0.00528538
0.00528536
0.00528542
0.00528566
0.00528571
0.00528537
0.00528514
0.00528503
0.00528498
0.00528515
0.00528514
0.00528506
0.00528498
0.00528492
0.00528487
0.00528485
0.00528483
0.00528481
0.00528473
0.00528488
0.00528497
0.00528506
0.00528517
0.00528528
0.00528539
0.00528551
0.00528564
0.00528577
0.00528588
0.00528598
0.00528608
0.00528618
0.00528626
0.00528633
0.00528639
0.00528643
0.00528634
0.00528607
0.00528597
0.00528596
0.00528597
0.005286
0.00528603
0.00528604
0.00528604
0.005286
0.00528597
0.00528597
0.00528596
0.00504119
0.00504119
0.00504118
0.00504116
0.00504115
0.00504114
0.00504113
0.00504108
0.00504103
0.00504097
0.00504089
0.00504074
0.00504065
0.00504065
0.00504071
0.00504087
0.00504054
0.00504034
0.00504021
0.00504013
0.00504022
0.00504022
0.00504013
0.00504003
0.00503994
0.00503988
0.00503983
0.00503981
0.0050398
0.00503971
0.00503987
0.00503999
0.0050401
0.00504023
0.00504037
0.00504052
0.00504068
0.00504083
0.00504098
0.00504114
0.00504127
0.0050414
0.00504152
0.00504162
0.00504171
0.00504177
0.00504174
0.00504161
0.00504146
0.00504139
0.00504139
0.00504142
0.00504144
0.00504149
0.00504149
0.0050415
0.00504147
0.00504143
0.00504144
0.00504143
0.00481716
0.00481716
0.00481715
0.00481713
0.0048171
0.00481709
0.00481706
0.00481702
0.00481695
0.00481686
0.00481677
0.00481663
0.00481649
0.00481642
0.00481643
0.00481653
0.00481626
0.00481604
0.00481586
0.00481574
0.00481566
0.00481574
0.00481565
0.00481553
0.00481542
0.00481533
0.00481528
0.00481525
0.00481522
0.00481515
0.00481533
0.00481546
0.00481559
0.00481575
0.00481592
0.0048161
0.00481629
0.00481649
0.00481667
0.00481686
0.00481703
0.00481719
0.00481733
0.00481747
0.00481756
0.00481761
0.00481749
0.00481744
0.00481737
0.00481732
0.00481733
0.00481737
0.0048174
0.00481744
0.00481745
0.00481746
0.00481743
0.00481739
0.0048174
0.00481739
0.00461124
0.00461124
0.00461122
0.0046112
0.00461117
0.00461115
0.00461111
0.00461105
0.00461096
0.00461087
0.00461076
0.0046106
0.00461045
0.00461029
0.00461018
0.00461011
0.00461
0.00460982
0.00460961
0.00460943
0.00460927
0.00460935
0.00460924
0.00460909
0.00460895
0.00460884
0.00460876
0.00460872
0.00460869
0.00460862
0.00460881
0.00460896
0.00460912
0.00460931
0.00460952
0.00460975
0.00460997
0.00461021
0.00461044
0.00461066
0.00461087
0.00461107
0.00461123
0.00461139
0.00461149
0.00461152
0.00461143
0.00461143
0.00461136
0.00461133
0.00461136
0.0046114
0.00461144
0.00461147
0.00461149
0.0046115
0.00461148
0.00461145
0.00461145
0.00461145
0.00442138
0.00442137
0.00442135
0.00442132
0.00442128
0.00442125
0.0044212
0.00442113
0.00442103
0.00442092
0.00442079
0.00442062
0.00442045
0.00442026
0.00442007
0.00441994
0.00441984
0.00441964
0.00441939
0.00441917
0.00441896
0.004419
0.00441884
0.00441864
0.00441847
0.00441833
0.00441823
0.00441817
0.00441814
0.00441808
0.00441827
0.00441845
0.00441864
0.00441887
0.00441912
0.00441938
0.00441967
0.00441994
0.00442022
0.00442049
0.00442073
0.00442096
0.00442116
0.00442133
0.00442139
0.00442138
0.00442141
0.00442143
0.00442139
0.00442139
0.00442142
0.00442146
0.0044215
0.00442154
0.00442157
0.00442158
0.00442156
0.00442154
0.00442154
0.00442153
0.0042458
0.0042458
0.00424577
0.00424574
0.0042457
0.00424566
0.0042456
0.00424551
0.00424541
0.00424528
0.00424513
0.00424493
0.00424474
0.00424452
0.00424431
0.00424413
0.004244
0.00424374
0.00424345
0.00424317
0.00424291
0.00424289
0.00424269
0.00424244
0.00424223
0.00424206
0.00424193
0.00424185
0.00424181
0.00424175
0.00424197
0.00424216
0.00424239
0.00424266
0.00424295
0.00424327
0.0042436
0.00424394
0.00424426
0.00424457
0.00424486
0.00424513
0.00424535
0.0042455
0.0042455
0.00424558
0.00424565
0.0042457
0.0042457
0.00424571
0.00424576
0.00424581
0.00424585
0.00424589
0.00424591
0.00424593
0.00424591
0.0042459
0.0042459
0.00424589
0.00408302
0.004083
0.00408298
0.00408295
0.00408289
0.00408285
0.00408278
0.00408268
0.00408256
0.00408242
0.00408224
0.00408203
0.00408181
0.00408156
0.00408132
0.00408111
0.00408092
0.00408062
0.00408027
0.00407993
0.00407963
0.00407948
0.00407927
0.00407898
0.00407871
0.0040785
0.00407834
0.00407824
0.00407819
0.00407813
0.00407836
0.00407859
0.00407885
0.00407917
0.00407951
0.00407989
0.00408028
0.00408068
0.00408105
0.00408141
0.00408174
0.00408205
0.0040823
0.00408244
0.00408247
0.00408258
0.00408268
0.00408271
0.00408273
0.00408279
0.00408286
0.00408291
0.00408296
0.004083
0.00408303
0.00408304
0.00408303
0.00408301
0.00408302
0.00408301
0.0039317
0.00393168
0.00393166
0.00393162
0.00393157
0.00393151
0.00393144
0.00393132
0.00393119
0.00393104
0.00393085
0.00393061
0.00393036
0.00393009
0.0039298
0.00392955
0.00392932
0.00392896
0.00392856
0.00392814
0.00392775
0.00392742
0.00392725
0.00392694
0.00392663
0.00392636
0.00392616
0.00392604
0.00392597
0.00392592
0.00392616
0.00392642
0.00392673
0.00392709
0.0039275
0.00392794
0.0039284
0.00392885
0.00392929
0.0039297
0.00393009
0.00393041
0.00393063
0.00393076
0.0039309
0.00393105
0.00393117
0.00393121
0.00393126
0.00393134
0.00393141
0.00393147
0.00393152
0.00393156
0.00393159
0.0039316
0.0039316
0.00393158
0.00393159
0.00393157
0.00379072
0.0037907
0.00379067
0.00379063
0.00379057
0.00379051
0.00379043
0.00379031
0.00379017
0.00378999
0.00378979
0.00378953
0.00378925
0.00378895
0.00378863
0.00378833
0.00378804
0.00378765
0.00378717
0.00378668
0.00378621
0.00378577
0.00378555
0.0037852
0.00378481
0.00378449
0.00378425
0.00378409
0.003784
0.00378395
0.00378422
0.00378451
0.00378486
0.00378529
0.00378577
0.00378628
0.00378681
0.00378733
0.00378784
0.00378831
0.00378873
0.00378907
0.00378922
0.00378944
0.00378965
0.00378985
0.00378998
0.00379004
0.00379011
0.0037902
0.00379028
0.00379034
0.00379039
0.00379044
0.00379047
0.00379048
0.00379047
0.00379046
0.00379046
0.00379045
0.00365908
0.00365906
0.00365903
0.00365899
0.00365893
0.00365886
0.00365877
0.00365864
0.00365849
0.0036583
0.00365808
0.00365781
0.0036575
0.00365717
0.0036568
0.00365646
0.00365612
0.00365566
0.00365514
0.00365457
0.00365402
0.0036535
0.00365315
0.00365274
0.00365229
0.0036519
0.0036516
0.00365141
0.0036513
0.00365125
0.00365153
0.00365186
0.00365227
0.00365277
0.00365333
0.00365393
0.00365454
0.00365514
0.0036557
0.00365623
0.0036567
0.00365705
0.00365724
0.00365751
0.00365776
0.00365797
0.00365808
0.00365817
0.00365828
0.00365838
0.00365846
0.00365853
0.00365858
0.00365863
0.00365866
0.00365867
0.00365866
0.00365865
0.00365866
0.00365864
0.00353591
0.00353589
0.00353586
0.00353581
0.00353574
0.00353568
0.00353559
0.00353545
0.00353529
0.00353509
0.00353485
0.00353456
0.00353424
0.00353387
0.00353348
0.00353307
0.00353266
0.00353216
0.00353157
0.00353094
0.00353028
0.00352965
0.00352908
0.00352868
0.00352819
0.00352772
0.00352736
0.00352712
0.00352699
0.00352694
0.00352724
0.00352762
0.0035281
0.00352867
0.00352932
0.00353001
0.00353071
0.00353139
0.00353201
0.00353255
0.00353303
0.0035334
0.00353373
0.00353405
0.00353434
0.00353454
0.00353466
0.00353478
0.00353491
0.00353502
0.0035351
0.00353516
0.00353522
0.00353526
0.00353529
0.0035353
0.0035353
0.00353529
0.00353529
0.00353528
0.00342043
0.00342041
0.00342038
0.00342034
0.00342027
0.0034202
0.0034201
0.00341997
0.0034198
0.00341959
0.00341935
0.00341904
0.0034187
0.0034183
0.00341786
0.00341737
0.00341689
0.00341637
0.00341572
0.00341501
0.00341427
0.00341351
0.00341281
0.00341234
0.00341175
0.0034112
0.00341077
0.00341047
0.00341031
0.00341025
0.00341057
0.00341101
0.00341156
0.00341223
0.00341299
0.00341379
0.00341458
0.00341532
0.003416
0.00341661
0.00341707
0.00341751
0.00341793
0.0034183
0.00341859
0.00341877
0.00341892
0.00341908
0.00341922
0.00341933
0.00341942
0.00341948
0.00341953
0.00341958
0.0034196
0.00341961
0.0034196
0.0034196
0.0034196
0.00341959
0.00331198
0.00331196
0.00331193
0.00331189
0.00331182
0.00331175
0.00331165
0.00331152
0.00331134
0.00331113
0.00331087
0.00331056
0.0033102
0.00330978
0.0033093
0.00330877
0.00330823
0.00330766
0.00330694
0.00330615
0.0033053
0.00330445
0.00330362
0.00330299
0.00330231
0.00330167
0.00330115
0.00330078
0.00330059
0.00330053
0.00330088
0.00330137
0.00330202
0.0033028
0.00330368
0.0033046
0.00330547
0.00330628
0.00330704
0.00330771
0.00330822
0.00330873
0.00330919
0.00330957
0.00330986
0.00331005
0.00331022
0.00331039
0.00331054
0.00331065
0.00331073
0.00331079
0.00331084
0.00331089
0.0033109
0.00331092
0.00331091
0.0033109
0.0033109
0.00331089
0.00320995
0.00320993
0.0032099
0.00320985
0.00320979
0.00320972
0.00320963
0.00320949
0.00320932
0.00320911
0.00320885
0.00320853
0.00320816
0.00320772
0.00320722
0.00320665
0.00320605
0.0032054
0.00320464
0.00320376
0.00320281
0.00320184
0.00320089
0.00320003
0.00319939
0.00319863
0.00319802
0.00319759
0.00319735
0.00319726
0.00319763
0.00319819
0.00319893
0.00319983
0.00320085
0.00320191
0.00320281
0.00320368
0.00320445
0.00320518
0.00320582
0.00320639
0.00320687
0.00320724
0.00320751
0.00320774
0.00320794
0.00320811
0.00320826
0.00320836
0.00320845
0.0032085
0.00320855
0.00320859
0.00320861
0.00320861
0.00320861
0.0032086
0.0032086
0.00320858
0.00311379
0.00311377
0.00311375
0.00311371
0.00311365
0.00311358
0.00311349
0.00311336
0.0031132
0.00311299
0.00311273
0.00311241
0.00311203
0.00311158
0.00311106
0.00311045
0.00310978
0.00310906
0.00310826
0.00310733
0.0031063
0.00310522
0.00310415
0.00310359
0.0031493
0.00314856
0.0031479
0.00314741
0.00314713
0.00314702
0.00314738
0.00314796
0.00314874
0.00314971
0.00315081
0.00315195
0.00310656
0.00310703
0.00310787
0.00310867
0.00310937
0.00310997
0.00311045
0.00311079
0.00311107
0.00311132
0.00311153
0.00311171
0.00311184
0.00311194
0.00311202
0.00311207
0.00311211
0.00311215
0.00311216
0.00311217
0.00311216
0.00311215
0.00311215
0.00311213
0.00302304
0.00302302
0.00302299
0.00302296
0.00302291
0.00302285
0.00302277
0.00302264
0.00302249
0.00302229
0.00302204
0.00302172
0.00302135
0.0030209
0.00302037
0.00301974
0.00301902
0.00301823
0.00301737
0.00301643
0.00301534
0.0030142
0.00301348
0.00305648
0.0030537
0.00305301
0.00305225
0.00305168
0.00305131
0.00305113
0.00305145
0.00305204
0.00305289
0.00305399
0.00305526
0.00305647
0.00305954
0.00301635
0.00301686
0.00301767
0.00301839
0.00301899
0.00301945
0.00301978
0.00302006
0.00302032
0.00302053
0.00302069
0.00302082
0.00302091
0.00302098
0.00302102
0.00302106
0.00302108
0.00302109
0.0030211
0.00302109
0.00302108
0.00302107
0.00302105
0.00293726
0.00293723
0.00293722
0.00293719
0.00293715
0.00293709
0.00293702
0.00293692
0.00293677
0.00293659
0.00293635
0.00293605
0.00293569
0.00293525
0.00293473
0.0029341
0.00293336
0.00293254
0.00293164
0.00293067
0.00292957
0.00292842
0.00292791
0.00296657
0.00296413
0.00298489
0.00298427
0.0029837
0.00298325
0.00298294
0.00298314
0.00298363
0.00298444
0.00298559
0.002987
0.00296686
0.00296958
0.00293076
0.00293095
0.00293175
0.00293244
0.002933
0.00293342
0.00293375
0.00293405
0.00293429
0.00293449
0.00293464
0.00293475
0.00293483
0.00293488
0.00293492
0.00293495
0.00293497
0.00293498
0.00293498
0.00293496
0.00293495
0.00293495
0.00293492
0.00285606
0.00285603
0.00285602
0.002856
0.00285597
0.00285593
0.00285587
0.00285578
0.00285566
0.00285549
0.00285528
0.00285501
0.00285467
0.00285425
0.00285375
0.00285314
0.00285242
0.0028516
0.00285067
0.00284969
0.00284865
0.00284758
0.00284732
0.00288203
0.00288038
0.00289838
0.00289867
0.00289821
0.00289765
0.00289708
0.00289683
0.00289689
0.00289741
0.00289846
0.00289988
0.00288293
0.00288459
0.00285
0.00284981
0.00285051
0.00285113
0.00285162
0.00285201
0.00285235
0.00285263
0.00285285
0.00285303
0.00285315
0.00285325
0.00285332
0.00285336
0.00285339
0.00285341
0.00285342
0.00285342
0.00285342
0.0028534
0.00285339
0.00285338
0.00285336
0.00277909
0.00277906
0.00277906
0.00277905
0.00277903
0.00277901
0.00277897
0.0027789
0.0027788
0.00277866
0.00277848
0.00277824
0.00277794
0.00277756
0.0027771
0.00277653
0.00277586
0.00277508
0.00277419
0.00277325
0.00277233
0.00277142
0.00277156
0.00280298
0.00280205
0.00281747
0.0028195
0.00281942
0.00281909
0.00281841
0.00281765
0.00281689
0.00281657
0.00281697
0.00281809
0.00280443
0.00280441
0.00277373
0.00277309
0.0027736
0.00277412
0.00277454
0.00277491
0.00277522
0.00277546
0.00277565
0.00277579
0.0027759
0.00277597
0.00277602
0.00277605
0.00277607
0.00277608
0.00277608
0.00277608
0.00277607
0.00277606
0.00277604
0.00277603
0.002776
0.00270604
0.00270602
0.00270602
0.00270602
0.00270602
0.00270601
0.00270599
0.00270595
0.00270588
0.00270578
0.00270564
0.00270544
0.00270519
0.00270487
0.00270447
0.00270397
0.00270338
0.0027027
0.00270193
0.00270113
0.00270043
0.00269979
0.00270064
0.00272951
0.00272933
0.00274347
0.00274843
0.00274998
0.00275129
0.00275151
0.00274996
0.0027468
0.00274368
0.00274175
0.00274147
0.00273171
0.00272889
0.00270162
0.0027005
0.00270072
0.00270113
0.00270148
0.00270179
0.00270203
0.00270222
0.00270237
0.00270247
0.00270255
0.0027026
0.00270263
0.00270265
0.00270265
0.00270266
0.00270265
0.00270265
0.00270263
0.00270261
0.00270259
0.00270259
0.00270256
0.00263662
0.0026366
0.00263661
0.00263662
0.00263664
0.00263665
0.00263666
0.00263665
0.00263662
0.00263656
0.00263646
0.00263632
0.00263613
0.00263589
0.00263557
0.00263518
0.00263472
0.00263419
0.00263363
0.00263311
0.00263281
0.00263265
0.00263477
0.00266201
0.00266281
0.00267815
0.00268955
0.00269702
0.00270662
0.00271329
0.00271031
0.00269802
0.00268439
0.00267513
0.00267057
0.00266465
0.00265793
0.00263337
0.00263186
0.00263172
0.00263193
0.00263214
0.00263233
0.00263249
0.00263262
0.00263271
0.00263278
0.00263282
0.00263285
0.00263286
0.00263286
0.00263286
0.00263285
0.00263284
0.00263283
0.00263281
0.00263279
0.00263277
0.00263276
0.00263273
0.00257057
0.00257056
0.00257058
0.0025706
0.00257063
0.00257067
0.00257071
0.00257073
0.00257074
0.00257073
0.00257069
0.00257062
0.00257051
0.00257036
0.00257015
0.0025699
0.0025696
0.0025693
0.00256903
0.00256895
0.00256929
0.00257004
0.00257436
0.00260094
0.00260392
0.00262562
0.0026505
0.00268046
0.00273247
0.00278476
0.00277897
0.00271755
0.00265786
0.00262351
0.00260762
0.00260283
0.0025917
0.00256868
0.00256694
0.00256632
0.00256622
0.00256623
0.00256627
0.00256633
0.00256638
0.00256641
0.00256644
0.00256645
0.00256646
0.00256645
0.00256644
0.00256642
0.0025664
0.00256639
0.00256637
0.00256635
0.00256632
0.0025663
0.00256629
0.00256626
0.00250766
0.00250765
0.00250768
0.00250772
0.00250777
0.00250783
0.0025079
0.00250796
0.00250802
0.00250806
0.00250809
0.00250809
0.00250808
0.00250804
0.00250797
0.00250788
0.00250781
0.00250779
0.00250793
0.00250844
0.00250967
0.00251201
0.00251999
0.00254705
0.00255507
0.00259096
0.00264512
0.00275331
0.00290319
0.0030396
0.00304181
0.00290833
0.00273151
0.00260437
0.00255789
0.0025452
0.00253054
0.00250736
0.00250549
0.00250424
0.00250373
0.00250349
0.00250336
0.0025033
0.00250326
0.00250324
0.00250322
0.0025032
0.00250318
0.00250316
0.00250313
0.00250311
0.00250308
0.00250306
0.00250304
0.00250302
0.00250299
0.00250297
0.00250296
0.00250293
0.00244766
0.00244766
0.0024477
0.00244775
0.00244783
0.00244792
0.00244802
0.00244812
0.00244822
0.00244833
0.00244843
0.00244852
0.00244861
0.00244869
0.00244879
0.0024489
0.00244909
0.00244944
0.00245008
0.00245135
0.00245375
0.00245855
0.00247188
0.00250089
0.00251972
0.00257882
0.00268832
0.00289781
0.00325009
0.00410714
0.00406921
0.00338198
0.00293429
0.00265585
0.00252957
0.00249112
0.00247499
0.00244904
0.00244719
0.00244521
0.0024442
0.00244366
0.00244334
0.00244316
0.00244304
0.00244296
0.0024429
0.00244285
0.00244281
0.00244277
0.00244273
0.0024427
0.00244267
0.00244265
0.00244262
0.0024426
0.00244257
0.00244255
0.00244254
0.00244251
0.00239039
0.00239039
0.00239044
0.00239051
0.0023906
0.00239072
0.00239086
0.002391
0.00239116
0.00239133
0.00239151
0.00239169
0.0023919
0.00239213
0.0023924
0.00239274
0.00239324
0.002394
0.00239525
0.00239742
0.00240128
0.00240956
0.00242992
0.00246246
0.00250074
0.0025905
0.00276714
0.00306899
0.00483362
0.00494808
0.0032594
0.00280307
0.00252976
0.00244025
0.00242479
0.00239354
0.00239175
0.00238895
0.00238736
0.0023865
0.00238598
0.00238567
0.00238547
0.00238534
0.00238524
0.00238517
0.00238511
0.00238507
0.00238503
0.00238499
0.00238496
0.00238494
0.00238492
0.00238489
0.00238487
0.00238485
0.00238484
0.00238482
0.00233566
0.00233566
0.00233572
0.00233581
0.00233592
0.00233607
0.00233624
0.00233643
0.00233665
0.00233688
0.00233714
0.00233742
0.00233775
0.00233813
0.00233859
0.00233919
0.00234002
0.00234125
0.00234316
0.00234636
0.00235191
0.00236455
0.00239334
0.00243135
0.00250048
0.00262766
0.00288709
0.00342152
0.0128971
0.0778276
0.0218981
0.00360126
0.00298001
0.00255186
0.00239356
0.0023791
0.002341
0.00233897
0.00233527
0.00233306
0.00233187
0.00233115
0.00233072
0.00233044
0.00233026
0.00233014
0.00233005
0.00232998
0.00232992
0.00232988
0.00232984
0.00232981
0.00232979
0.00232977
0.00232974
0.00232972
0.00232971
0.0023297
0.00232967
0.0022833
0.00228331
0.00228338
0.00228348
0.00228362
0.00228379
0.002284
0.00228424
0.0022845
0.00228481
0.00228515
0.00228553
0.00228598
0.00228652
0.00228719
0.00228805
0.00228923
0.00229094
0.00229355
0.00229781
0.00230515
0.0023227
0.00236048
0.00240621
0.002517
0.00269532
0.00318297
0.0101044
0.132394
0.163704
0.0557565
0.00956642
0.00388826
0.00315366
0.00257807
0.00235393
0.00233627
0.0022914
0.00228854
0.00228387
0.00228107
0.00227954
0.00227864
0.0022781
0.00227776
0.00227754
0.0022774
0.00227729
0.00227722
0.00227716
0.00227711
0.00227708
0.00227704
0.00227702
0.002277
0.00227698
0.00227696
0.00227695
0.00227694
0.00227691
0.00223316
0.00223318
0.00223326
0.00223338
0.00223354
0.00223374
0.00223398
0.00223426
0.00223458
0.00223495
0.00223537
0.00223586
0.00223644
0.00223713
0.002238
0.00223911
0.00224064
0.00224283
0.0022461
0.00225141
0.00226047
0.00228281
0.00232884
0.00238371
0.00253704
0.00277651
0.00372718
0.0259955
0.370367
0.242182
0.0775414
0.00696584
0.00431592
0.00326349
0.00258903
0.00232261
0.00229468
0.00224469
0.00224023
0.0022345
0.00223117
0.00222932
0.00222828
0.00222764
0.00222726
0.00222702
0.00222686
0.00222675
0.00222667
0.00222662
0.00222657
0.00222654
0.00222651
0.00222649
0.00222647
0.00222646
0.00222644
0.00222642
0.00222641
0.00222639
0.00218511
0.00218513
0.00218522
0.00218535
0.00218553
0.00218576
0.00218604
0.00218636
0.00218674
0.00218717
0.00218767
0.00218825
0.00218895
0.00218979
0.00219085
0.0021922
0.00219404
0.00219665
0.00220054
0.00220682
0.00221743
0.00224379
0.00229613
0.00235954
0.00254248
0.00283523
0.00408157
0.0271757
0.369363
0.527955
0.0699896
0.00708852
0.00470821
0.00328919
0.00257099
0.00229678
0.00225334
0.00220063
0.00219385
0.00218692
0.00218321
0.00218108
0.00217991
0.00217921
0.0021788
0.00217855
0.00217839
0.00217828
0.00217821
0.00217816
0.00217812
0.00217809
0.00217807
0.00217805
0.00217804
0.00217803
0.00217801
0.002178
0.00217799
0.00217797
0.00213901
0.00213903
0.00213913
0.00213928
0.00213948
0.00213974
0.00214005
0.00214041
0.00214083
0.00214132
0.0021419
0.00214257
0.00214338
0.00214435
0.00214556
0.00214711
0.00214923
0.00215228
0.00215673
0.00216385
0.00217563
0.00220487
0.00226129
0.00233091
0.00252696
0.00285255
0.00417859
0.0222716
0.232825
0.571632
0.0870678
0.00721552
0.00481025
0.00324562
0.0025318
0.00227056
0.00221206
0.00215885
0.00214929
0.00214102
0.00213704
0.00213465
0.00213342
0.00213268
0.00213227
0.00213201
0.00213186
0.00213176
0.0021317
0.00213167
0.00213164
0.00213162
0.0021316
0.00213159
0.00213158
0.00213157
0.00213156
0.00213155
0.00213155
0.00213153
0.00209474
0.00209478
0.00209489
0.00209505
0.00209526
0.00209554
0.00209588
0.00209628
0.00209675
0.0020973
0.00209794
0.00209869
0.00209958
0.00210064
0.00210199
0.00210378
0.00210619
0.00210961
0.00211451
0.00212227
0.00213486
0.00216586
0.00222467
0.0022976
0.00249603
0.00283325
0.00412916
0.0170759
0.143527
0.386926
0.0989535
0.00703477
0.0047701
0.00318743
0.00248348
0.00223856
0.00217148
0.00211863
0.00210642
0.00209666
0.00209254
0.00208992
0.00208866
0.00208794
0.00208754
0.0020873
0.00208717
0.00208709
0.00208705
0.00208702
0.00208701
0.002087
0.00208699
0.00208699
0.00208698
0.00208698
0.00208697
0.00208696
0.00208696
0.00208694
0.00205221
0.00205225
0.00205236
0.00205254
0.00205277
0.00205307
0.00205343
0.00205387
0.00205438
0.00205497
0.00205566
0.00205648
0.00205743
0.00205861
0.00206012
0.0020621
0.00206474
0.00206845
0.00207371
0.00208194
0.00209521
0.00212699
0.0021866
0.00226083
0.00245591
0.00279862
0.00401097
0.0132507
0.0924096
0.249698
0.123939
0.00704416
0.00471488
0.0031582
0.0024451
0.00219796
0.00213231
0.00207973
0.0020652
0.00205387
0.00204971
0.00204692
0.00204563
0.00204488
0.00204452
0.00204432
0.00204421
0.00204416
0.00204414
0.00204413
0.00204412
0.00204413
0.00204413
0.00204414
0.00204414
0.00204414
0.00204414
0.00204413
0.00204413
0.00204411
0.0020113
0.00201134
0.00201146
0.00201165
0.0020119
0.00201221
0.0020126
0.00201306
0.00201361
0.00201423
0.00201495
0.00201581
0.00201686
0.00201816
0.0020198
0.00202192
0.00202474
0.00202869
0.00203423
0.00204276
0.00205658
0.0020884
0.00214785
0.00222154
0.00241106
0.0027661
0.00387068
0.010608
0.0620808
0.162455
0.134685
0.0074415
0.00474479
0.00317643
0.00243191
0.00215044
0.00209565
0.00204173
0.00202551
0.00201279
0.00200847
0.00200553
0.00200425
0.00200348
0.00200311
0.00200294
0.00200289
0.00200288
0.00200287
0.00200288
0.0020029
0.00200291
0.00200292
0.00200294
0.00200295
0.00200295
0.00200295
0.00200295
0.00200296
0.00200294
0.00197192
0.00197197
0.0019721
0.00197229
0.00197255
0.00197289
0.0019733
0.00197378
0.00197434
0.00197498
0.00197574
0.00197667
0.0019778
0.00197918
0.00198091
0.00198315
0.00198611
0.00199021
0.00199599
0.00200465
0.00201894
0.00205038
0.00210895
0.00218124
0.00236474
0.00273585
0.00372231
0.00868666
0.0428732
0.108268
0.111093
0.0165553
0.00493402
0.00331267
0.00247901
0.00210775
0.00206422
0.00200453
0.00198706
0.00197342
0.00196882
0.0019657
0.00196441
0.00196366
0.00196331
0.00196315
0.00196312
0.00196315
0.00196318
0.00196321
0.00196323
0.00196326
0.00196329
0.00196331
0.00196332
0.00196333
0.00196334
0.00196334
0.00196335
0.00196333
0.001934
0.00193405
0.00193418
0.00193438
0.00193465
0.001935
0.00193542
0.00193592
0.00193649
0.00193716
0.00193798
0.00193895
0.00194013
0.00194157
0.00194337
0.00194568
0.00194874
0.00195296
0.0019589
0.00196758
0.00198231
0.00201303
0.00207051
0.00214119
0.00231872
0.00270273
0.00358353
0.00727477
0.0300955
0.0749377
0.0859822
0.0415216
0.0082349
0.00393603
0.00265489
0.00211449
0.0020394
0.00196849
0.00194978
0.00193571
0.00193068
0.00192744
0.00192605
0.00192532
0.001925
0.00192486
0.00192485
0.00192489
0.00192496
0.00192501
0.00192506
0.00192509
0.00192513
0.00192516
0.00192518
0.0019252
0.00192521
0.00192521
0.00192522
0.00192521
0.00189744
0.00189749
0.00189763
0.00189784
0.00189812
0.00189847
0.00189889
0.00189939
0.00189999
0.00190071
0.00190155
0.00190256
0.00190377
0.00190525
0.00190709
0.00190946
0.00191258
0.00191684
0.00192291
0.00193156
0.00194662
0.00197647
0.00203316
0.00210258
0.00227401
0.00267007
0.00347831
0.0062186
0.0214402
0.0537837
0.0681515
0.0543739
0.020406
0.00697703
0.00316297
0.00224484
0.0020188
0.00193427
0.00191366
0.00189955
0.00189395
0.00189067
0.00188918
0.00188841
0.00188807
0.00188795
0.00188798
0.00188805
0.00188813
0.00188822
0.00188828
0.00188833
0.00188838
0.00188841
0.00188844
0.00188846
0.00188847
0.00188848
0.00188849
0.00188848