/*--------------------------------*- C++ -*----------------------------------*\
  =========                 |
  \\      /  F ield         | OpenFOAM: The Open Source CFD Toolbox
   \\    /   O peration     | Website:  https://openfoam.org
    \\  /    A nd           | Version:  12
     \\/     M anipulation  |
\*---------------------------------------------------------------------------*/
FoamFile
{
    format      ascii;
    class       volScalarField;
    location    "260";
    object      nut;
}
// * * * * * * * * * * * * * * * * * * * * * * * * * * * * * * * * * * * * * //

dimensions      [0 2 -1 0 0 0 0];

internalField   nonuniform List<scalar> 
16227
(
0.000978543
0.000978543
0.000978543
0.000978543
0.000978543
0.000978543
0.000978543
0.000978543
0.000978543
0.000978543
0.000978543
0.000978543
0.000978544
0.000978544
0.000978544
0.000978544
0.000978544
0.000978544
0.000978544
0.000978544
0.000978544
0.000978544
0.000978544
0.000978544
0.000978544
0.000978544
0.000978544
0.000978544
0.000978544
0.000978544
0.000978544
0.000978544
0.000978544
0.000978544
0.000978544
0.000978544
0.000978544
0.000978544
0.000978544
0.000978544
0.000978544
0.000978544
0.000978544
0.000978544
0.000978544
0.000978544
0.000978544
0.000978544
0.000978544
0.000978544
0.000978544
0.000978543
0.000978543
0.000978543
0.000978543
0.000978543
0.000978543
0.000978543
0.000978543
0.000978543
0.000972834
0.000972834
0.000972834
0.000972834
0.000972834
0.000972834
0.000972834
0.000972834
0.000972834
0.000972834
0.000972835
0.000972835
0.000972836
0.000972836
0.000972836
0.000972836
0.000972836
0.000972836
0.000972836
0.000972836
0.000972837
0.000972837
0.000972837
0.000972837
0.000972837
0.000972837
0.000972837
0.000972837
0.000972836
0.000972836
0.000972837
0.000972837
0.000972837
0.000972837
0.000972837
0.000972837
0.000972837
0.000972837
0.000972837
0.000972837
0.000972837
0.000972837
0.000972837
0.000972837
0.000972837
0.000972836
0.000972836
0.000972836
0.000972836
0.000972836
0.000972836
0.000972836
0.000972835
0.000972835
0.000972834
0.000972834
0.000972835
0.000972834
0.000972834
0.000972834
0.000967494
0.000967494
0.000967494
0.000967494
0.000967494
0.000967495
0.000967494
0.000967494
0.000967494
0.000967494
0.000967495
0.000967495
0.000967497
0.000967498
0.000967498
0.000967498
0.000967498
0.000967498
0.000967498
0.000967497
0.000967498
0.000967498
0.000967498
0.000967498
0.000967498
0.000967498
0.000967498
0.000967498
0.000967498
0.000967497
0.000967498
0.000967498
0.000967498
0.000967498
0.000967498
0.000967498
0.000967498
0.000967498
0.000967498
0.000967498
0.000967498
0.000967498
0.000967498
0.000967498
0.000967498
0.000967498
0.000967498
0.000967498
0.000967498
0.000967498
0.000967497
0.000967496
0.000967495
0.000967495
0.000967495
0.000967495
0.000967495
0.000967494
0.000967494
0.000967494
0.000962481
0.000962481
0.000962481
0.000962481
0.000962481
0.000962482
0.000962482
0.000962481
0.000962481
0.000962481
0.000962482
0.000962482
0.000962485
0.000962485
0.000962485
0.000962486
0.000962486
0.000962486
0.000962485
0.000962484
0.000962485
0.000962485
0.000962485
0.000962485
0.000962485
0.000962485
0.000962485
0.000962485
0.000962485
0.000962485
0.000962485
0.000962486
0.000962486
0.000962486
0.000962486
0.000962486
0.000962486
0.000962486
0.000962486
0.000962486
0.000962486
0.000962486
0.000962486
0.000962486
0.000962486
0.000962486
0.000962486
0.000962486
0.000962486
0.000962486
0.000962485
0.000962483
0.000962482
0.000962482
0.000962482
0.000962483
0.000962482
0.000962482
0.000962482
0.000962481
0.00095776
0.00095776
0.00095776
0.00095776
0.00095776
0.00095776
0.000957761
0.00095776
0.00095776
0.00095776
0.00095776
0.000957761
0.000957763
0.000957764
0.000957765
0.000957765
0.000957765
0.000957764
0.000957762
0.000957761
0.000957763
0.000957764
0.000957764
0.000957764
0.000957764
0.000957764
0.000957764
0.000957764
0.000957764
0.000957763
0.000957764
0.000957764
0.000957764
0.000957764
0.000957765
0.000957765
0.000957765
0.000957765
0.000957765
0.000957766
0.000957766
0.000957766
0.000957766
0.000957766
0.000957766
0.000957766
0.000957766
0.000957766
0.000957766
0.000957765
0.000957763
0.000957762
0.000957761
0.000957761
0.000957761
0.000957762
0.000957761
0.000957761
0.000957761
0.00095776
0.0009533
0.0009533
0.0009533
0.0009533
0.0009533
0.0009533
0.000953301
0.0009533
0.0009533
0.0009533
0.0009533
0.0009533
0.000953301
0.000953304
0.000953305
0.000953305
0.000953305
0.000953304
0.000953301
0.0009533
0.000953303
0.000953303
0.000953303
0.000953303
0.000953303
0.000953303
0.000953303
0.000953303
0.000953302
0.000953302
0.000953303
0.000953303
0.000953304
0.000953304
0.000953304
0.000953305
0.000953305
0.000953305
0.000953306
0.000953306
0.000953306
0.000953306
0.000953307
0.000953307
0.000953307
0.000953307
0.000953307
0.000953307
0.000953307
0.000953306
0.000953303
0.000953302
0.000953301
0.000953302
0.000953302
0.000953302
0.000953302
0.000953301
0.000953301
0.000953301
0.000949076
0.000949076
0.000949076
0.000949076
0.000949076
0.000949076
0.000949077
0.000949076
0.000949076
0.000949076
0.000949075
0.000949075
0.000949076
0.000949079
0.00094908
0.000949081
0.00094908
0.000949076
0.000949075
0.000949075
0.000949077
0.000949078
0.000949078
0.000949077
0.000949077
0.000949077
0.000949077
0.000949077
0.000949076
0.000949075
0.000949077
0.000949077
0.000949078
0.000949078
0.000949079
0.000949079
0.00094908
0.00094908
0.000949081
0.000949081
0.000949082
0.000949082
0.000949083
0.000949083
0.000949083
0.000949083
0.000949084
0.000949084
0.000949083
0.00094908
0.000949078
0.000949077
0.000949078
0.000949078
0.000949079
0.000949079
0.000949078
0.000949077
0.000949077
0.000949077
0.000945066
0.000945066
0.000945066
0.000945066
0.000945065
0.000945066
0.000945066
0.000945066
0.000945065
0.000945065
0.000945064
0.000945064
0.000945064
0.000945065
0.000945069
0.000945069
0.000945068
0.000945064
0.000945063
0.000945062
0.000945065
0.000945065
0.000945065
0.000945064
0.000945064
0.000945064
0.000945063
0.000945063
0.000945063
0.000945062
0.000945063
0.000945064
0.000945065
0.000945065
0.000945066
0.000945067
0.000945067
0.000945068
0.000945069
0.00094507
0.000945071
0.000945071
0.000945072
0.000945072
0.000945073
0.000945073
0.000945073
0.000945073
0.000945072
0.000945069
0.000945067
0.000945067
0.000945068
0.000945068
0.000945068
0.000945068
0.000945068
0.000945067
0.000945067
0.000945067
0.00094125
0.00094125
0.00094125
0.00094125
0.00094125
0.00094125
0.00094125
0.00094125
0.000941249
0.000941249
0.000941248
0.000941247
0.000941246
0.000941247
0.000941252
0.000941252
0.00094125
0.000941246
0.000941244
0.000941244
0.000941246
0.000941246
0.000941246
0.000941245
0.000941244
0.000941244
0.000941243
0.000941243
0.000941242
0.000941241
0.000941243
0.000941244
0.000941245
0.000941245
0.000941246
0.000941247
0.000941248
0.00094125
0.000941251
0.000941252
0.000941253
0.000941254
0.000941255
0.000941255
0.000941256
0.000941257
0.000941257
0.000941256
0.000941253
0.000941252
0.000941251
0.000941251
0.000941252
0.000941252
0.000941252
0.000941252
0.000941252
0.000941251
0.000941251
0.000941251
0.000937612
0.000937612
0.000937612
0.000937612
0.000937611
0.000937611
0.000937612
0.000937611
0.000937611
0.00093761
0.000937609
0.000937608
0.000937607
0.000937608
0.000937611
0.000937612
0.000937607
0.000937604
0.000937603
0.000937602
0.000937604
0.000937604
0.000937603
0.000937602
0.000937601
0.0009376
0.0009376
0.000937599
0.000937598
0.000937597
0.000937599
0.0009376
0.000937601
0.000937602
0.000937603
0.000937605
0.000937606
0.000937608
0.000937609
0.00093761
0.000937612
0.000937613
0.000937615
0.000937616
0.000937617
0.000937617
0.000937618
0.000937617
0.000937613
0.000937612
0.000937612
0.000937612
0.000937613
0.000937613
0.000937613
0.000937613
0.000937613
0.000937613
0.000937612
0.000937612
0.000934137
0.000934137
0.000934137
0.000934137
0.000934137
0.000934136
0.000934136
0.000934136
0.000934135
0.000934134
0.000934133
0.000934131
0.00093413
0.00093413
0.000934131
0.000934133
0.000934129
0.000934126
0.000934124
0.000934123
0.000934124
0.000934124
0.000934123
0.000934121
0.00093412
0.000934118
0.000934117
0.000934117
0.000934116
0.000934115
0.000934116
0.000934118
0.000934119
0.00093412
0.000934122
0.000934123
0.000934125
0.000934127
0.000934129
0.000934131
0.000934133
0.000934135
0.000934136
0.000934138
0.000934139
0.00093414
0.00093414
0.000934138
0.000934136
0.000934135
0.000934135
0.000934135
0.000934136
0.000934137
0.000934137
0.000934137
0.000934137
0.000934136
0.000934136
0.000934136
0.000930812
0.000930812
0.000930812
0.000930812
0.000930811
0.000930811
0.000930811
0.00093081
0.000930809
0.000930808
0.000930807
0.000930805
0.000930803
0.000930802
0.000930802
0.000930804
0.0009308
0.000930797
0.000930794
0.000930793
0.000930791
0.000930792
0.000930791
0.000930789
0.000930787
0.000930785
0.000930784
0.000930783
0.000930782
0.000930781
0.000930782
0.000930784
0.000930785
0.000930787
0.000930789
0.000930791
0.000930793
0.000930796
0.000930798
0.0009308
0.000930803
0.000930805
0.000930807
0.000930809
0.00093081
0.000930811
0.000930809
0.000930809
0.000930808
0.000930807
0.000930808
0.000930808
0.000930809
0.000930809
0.00093081
0.00093081
0.00093081
0.000930809
0.000930809
0.000930809
0.000927626
0.000927626
0.000927626
0.000927625
0.000927625
0.000927624
0.000927624
0.000927623
0.000927622
0.000927621
0.000927619
0.000927617
0.000927615
0.000927613
0.000927611
0.00092761
0.000927609
0.000927606
0.000927603
0.0009276
0.000927598
0.000927599
0.000927597
0.000927594
0.000927592
0.000927589
0.000927588
0.000927586
0.000927585
0.000927583
0.000927585
0.000927586
0.000927588
0.00092759
0.000927592
0.000927595
0.000927598
0.000927601
0.000927604
0.000927607
0.00092761
0.000927613
0.000927615
0.000927618
0.000927619
0.00092762
0.000927618
0.000927619
0.000927618
0.000927617
0.000927618
0.000927619
0.00092762
0.00092762
0.000927621
0.000927621
0.00092762
0.00092762
0.00092762
0.00092762
0.000924568
0.000924568
0.000924567
0.000924567
0.000924567
0.000924566
0.000924566
0.000924565
0.000924563
0.000924562
0.00092456
0.000924557
0.000924555
0.000924552
0.000924549
0.000924547
0.000924546
0.000924543
0.000924539
0.000924536
0.000924532
0.000924533
0.00092453
0.000924527
0.000924524
0.000924521
0.000924518
0.000924516
0.000924515
0.000924513
0.000924514
0.000924516
0.000924518
0.00092452
0.000924523
0.000924526
0.000924529
0.000924533
0.000924537
0.000924541
0.000924544
0.000924547
0.000924551
0.000924553
0.000924554
0.000924554
0.000924555
0.000924555
0.000924555
0.000924555
0.000924556
0.000924556
0.000924557
0.000924558
0.000924559
0.000924559
0.000924559
0.000924559
0.000924559
0.000924559
0.000921629
0.000921629
0.000921629
0.000921628
0.000921628
0.000921627
0.000921626
0.000921625
0.000921624
0.000921622
0.00092162
0.000921617
0.000921614
0.000921611
0.000921608
0.000921605
0.000921603
0.000921599
0.000921595
0.00092159
0.000921586
0.000921585
0.000921582
0.000921578
0.000921573
0.00092157
0.000921567
0.000921564
0.000921562
0.00092156
0.000921561
0.000921563
0.000921565
0.000921567
0.00092157
0.000921574
0.000921578
0.000921583
0.000921587
0.000921592
0.000921596
0.0009216
0.000921604
0.000921606
0.000921606
0.000921607
0.000921609
0.00092161
0.00092161
0.00092161
0.000921611
0.000921612
0.000921614
0.000921614
0.000921615
0.000921615
0.000921615
0.000921615
0.000921615
0.000921615
0.000918801
0.000918801
0.000918801
0.0009188
0.0009188
0.000918799
0.000918798
0.000918797
0.000918795
0.000918793
0.000918791
0.000918788
0.000918784
0.00091878
0.000918777
0.000918774
0.000918771
0.000918766
0.000918761
0.000918755
0.00091875
0.000918748
0.000918744
0.000918738
0.000918733
0.000918729
0.000918725
0.000918721
0.000918719
0.000918716
0.000918717
0.000918719
0.000918721
0.000918724
0.000918727
0.000918732
0.000918737
0.000918742
0.000918747
0.000918753
0.000918757
0.000918762
0.000918766
0.000918769
0.000918769
0.000918771
0.000918773
0.000918774
0.000918774
0.000918775
0.000918777
0.000918778
0.000918779
0.00091878
0.000918781
0.000918782
0.000918781
0.000918781
0.000918782
0.000918781
0.000916077
0.000916077
0.000916076
0.000916076
0.000916075
0.000916075
0.000916074
0.000916072
0.000916071
0.000916068
0.000916065
0.000916062
0.000916058
0.000916054
0.00091605
0.000916046
0.000916043
0.000916037
0.000916031
0.000916024
0.000916017
0.000916011
0.000916008
0.000916003
0.000915996
0.00091599
0.000915985
0.000915981
0.000915978
0.000915975
0.000915976
0.000915977
0.000915979
0.000915982
0.000915987
0.000915992
0.000915997
0.000916003
0.000916009
0.000916015
0.000916021
0.000916027
0.00091603
0.000916032
0.000916034
0.000916037
0.00091604
0.000916041
0.000916042
0.000916043
0.000916045
0.000916046
0.000916048
0.000916049
0.00091605
0.00091605
0.00091605
0.00091605
0.00091605
0.00091605
0.00091345
0.000913449
0.000913449
0.000913449
0.000913448
0.000913447
0.000913446
0.000913445
0.000913443
0.000913441
0.000913438
0.000913434
0.00091343
0.000913425
0.00091342
0.000913416
0.000913412
0.000913406
0.000913398
0.00091339
0.000913382
0.000913374
0.000913371
0.000913364
0.000913356
0.000913349
0.000913343
0.000913338
0.000913333
0.000913329
0.00091333
0.000913331
0.000913333
0.000913337
0.000913342
0.000913347
0.000913354
0.00091336
0.000913367
0.000913374
0.000913381
0.000913386
0.000913388
0.000913392
0.000913396
0.000913399
0.000913402
0.000913403
0.000913405
0.000913407
0.000913409
0.00091341
0.000913412
0.000913413
0.000913414
0.000913414
0.000913414
0.000913414
0.000913415
0.000913414
0.000910914
0.000910913
0.000910913
0.000910912
0.000910912
0.000910911
0.00091091
0.000910909
0.000910907
0.000910904
0.000910901
0.000910897
0.000910893
0.000910888
0.000910882
0.000910877
0.000910873
0.000910866
0.000910857
0.000910848
0.000910839
0.00091083
0.000910824
0.000910817
0.000910808
0.0009108
0.000910792
0.000910786
0.000910781
0.000910776
0.000910776
0.000910776
0.000910778
0.000910782
0.000910787
0.000910793
0.0009108
0.000910807
0.000910815
0.000910822
0.000910829
0.000910835
0.000910837
0.000910842
0.000910847
0.000910851
0.000910853
0.000910855
0.000910858
0.00091086
0.000910862
0.000910864
0.000910865
0.000910867
0.000910867
0.000910868
0.000910868
0.000910868
0.000910868
0.000910868
0.000908463
0.000908462
0.000908462
0.000908462
0.000908461
0.000908461
0.00090846
0.000908458
0.000908456
0.000908454
0.000908451
0.000908447
0.000908442
0.000908437
0.000908431
0.000908426
0.00090842
0.000908413
0.000908404
0.000908394
0.000908384
0.000908373
0.000908364
0.000908357
0.000908347
0.000908338
0.000908329
0.000908322
0.000908316
0.00090831
0.000908309
0.000908309
0.00090831
0.000908314
0.000908318
0.000908325
0.000908332
0.000908339
0.000908347
0.000908354
0.000908361
0.000908366
0.000908371
0.000908377
0.000908382
0.000908386
0.000908389
0.000908391
0.000908394
0.000908397
0.000908399
0.000908401
0.000908403
0.000908404
0.000908405
0.000908406
0.000908406
0.000908406
0.000908406
0.000908406
0.000906093
0.000906092
0.000906092
0.000906092
0.000906091
0.000906091
0.00090609
0.000906089
0.000906087
0.000906085
0.000906082
0.000906078
0.000906073
0.000906068
0.000906062
0.000906056
0.000906049
0.000906043
0.000906034
0.000906024
0.000906013
0.000906001
0.00090599
0.000905983
0.000905972
0.000905961
0.000905952
0.000905944
0.000905937
0.00090593
0.000905928
0.000905927
0.000905927
0.000905929
0.000905933
0.000905939
0.000905945
0.000905952
0.000905959
0.000905966
0.000905972
0.000905978
0.000905985
0.000905991
0.000905997
0.000906
0.000906003
0.000906007
0.00090601
0.000906013
0.000906015
0.000906017
0.000906019
0.00090602
0.000906022
0.000906022
0.000906022
0.000906023
0.000906023
0.000906023
0.000903798
0.000903798
0.000903798
0.000903798
0.000903797
0.000903797
0.000903797
0.000903796
0.000903794
0.000903792
0.000903789
0.000903786
0.000903782
0.000903777
0.000903771
0.000903765
0.000903759
0.000903753
0.000903744
0.000903734
0.000903723
0.000903712
0.0009037
0.00090369
0.000903679
0.00090367
0.000903661
0.000903653
0.000903645
0.000903638
0.000903634
0.000903631
0.000903629
0.000903629
0.000903631
0.000903636
0.000903638
0.000903642
0.000903648
0.000903654
0.00090366
0.000903667
0.000903674
0.000903681
0.000903686
0.00090369
0.000903693
0.000903697
0.000903701
0.000903703
0.000903706
0.000903708
0.00090371
0.000903711
0.000903712
0.000903713
0.000903713
0.000903714
0.000903714
0.000903714
0.000901576
0.000901575
0.000901575
0.000901575
0.000901575
0.000901575
0.000901575
0.000901575
0.000901574
0.000901573
0.00090157
0.000901568
0.000901564
0.00090156
0.000901555
0.00090155
0.000901544
0.000901539
0.000901532
0.000901524
0.000901515
0.000901506
0.000901496
0.000901484
0.000901481
0.000901473
0.000901467
0.000901461
0.000901453
0.000901443
0.000901435
0.000901427
0.000901419
0.000901415
0.000901413
0.000901415
0.00090141
0.000901408
0.000901409
0.000901414
0.00090142
0.000901427
0.000901434
0.00090144
0.000901445
0.000901449
0.000901453
0.000901457
0.000901461
0.000901464
0.000901467
0.000901469
0.00090147
0.000901472
0.000901473
0.000901474
0.000901474
0.000901474
0.000901474
0.000901474
0.000899421
0.000899421
0.000899421
0.000899421
0.000899422
0.000899422
0.000899422
0.000899423
0.000899422
0.000899422
0.000899421
0.000899419
0.000899417
0.000899414
0.000899411
0.000899407
0.000899403
0.000899399
0.000899396
0.000899393
0.000899389
0.000899387
0.000899383
0.000899385
0.000900383
0.000900384
0.000900382
0.000900379
0.000900372
0.00090036
0.000900348
0.000900334
0.00090032
0.00090031
0.000900304
0.000900302
0.000899274
0.000899248
0.000899243
0.000899245
0.00089925
0.000899256
0.000899262
0.000899266
0.000899271
0.000899275
0.00089928
0.000899284
0.000899288
0.000899291
0.000899293
0.000899295
0.000899297
0.000899299
0.0008993
0.0008993
0.000899301
0.000899301
0.000899301
0.000899301
0.00089733
0.00089733
0.000897331
0.000897331
0.000897332
0.000897333
0.000897334
0.000897335
0.000897336
0.000897337
0.000897337
0.000897337
0.000897336
0.000897336
0.000897335
0.000897334
0.000897333
0.000897334
0.000897336
0.000897342
0.00089735
0.000897363
0.000897374
0.000898341
0.000898282
0.000898298
0.000898313
0.000898324
0.000898323
0.000898306
0.000898281
0.000898248
0.000898215
0.000898188
0.000898169
0.000898147
0.0008982
0.000897177
0.000897148
0.000897145
0.000897146
0.00089715
0.000897154
0.000897157
0.000897161
0.000897165
0.00089717
0.000897174
0.000897177
0.00089718
0.000897182
0.000897184
0.000897186
0.000897188
0.000897189
0.00089719
0.00089719
0.00089719
0.000897191
0.00089719
0.0008953
0.0008953
0.000895301
0.000895302
0.000895304
0.000895305
0.000895308
0.00089531
0.000895312
0.000895314
0.000895316
0.000895319
0.000895321
0.000895323
0.000895326
0.000895329
0.000895334
0.000895342
0.000895355
0.000895374
0.000895403
0.000895444
0.000895462
0.000896345
0.000896345
0.00089682
0.000896882
0.000896923
0.000896933
0.000896907
0.000896854
0.000896784
0.000896714
0.000896659
0.000896624
0.000896105
0.000896113
0.000895181
0.000895124
0.00089511
0.000895106
0.000895105
0.000895106
0.000895108
0.000895111
0.000895115
0.000895119
0.000895123
0.000895126
0.000895128
0.000895131
0.000895133
0.000895135
0.000895136
0.000895137
0.000895138
0.000895138
0.000895139
0.000895139
0.000895139
0.000893328
0.000893328
0.000893329
0.000893331
0.000893333
0.000893336
0.000893339
0.000893343
0.000893347
0.000893351
0.000893356
0.000893361
0.000893366
0.000893373
0.000893382
0.000893392
0.000893405
0.000893425
0.000893452
0.000893493
0.000893555
0.000893636
0.000893668
0.000894486
0.000894633
0.000894968
0.000895221
0.000895347
0.00089539
0.00089534
0.000895209
0.00089503
0.000894853
0.000894717
0.000894632
0.000894219
0.000894103
0.000893267
0.000893171
0.000893139
0.000893126
0.000893119
0.000893116
0.000893117
0.000893119
0.000893122
0.000893125
0.000893128
0.000893131
0.000893133
0.000893135
0.000893137
0.000893139
0.00089314
0.000893141
0.000893142
0.000893143
0.000893143
0.000893143
0.000893143
0.000891411
0.000891411
0.000891413
0.000891415
0.000891418
0.000891422
0.000891427
0.000891432
0.000891438
0.000891445
0.000891452
0.000891461
0.000891471
0.000891484
0.0008915
0.000891519
0.000891545
0.000891581
0.000891631
0.000891705
0.000891818
0.000891952
0.000892026
0.000892828
0.000893151
0.000893341
0.000893976
0.000894268
0.000894436
0.000894414
0.000894183
0.000893799
0.000893386
0.000893044
0.000892814
0.000892577
0.00089218
0.000891437
0.000891292
0.000891232
0.000891206
0.000891191
0.000891184
0.000891181
0.000891181
0.000891182
0.000891184
0.000891187
0.000891189
0.000891191
0.000891193
0.000891195
0.000891196
0.000891198
0.000891199
0.0008912
0.0008912
0.0008912
0.000891201
0.0008912
0.000889545
0.000889546
0.000889548
0.000889551
0.000889555
0.00088956
0.000889566
0.000889574
0.000889582
0.000889592
0.000889604
0.000889617
0.000889633
0.000889653
0.000889678
0.00088971
0.000889753
0.000889813
0.000889896
0.000890018
0.000890204
0.000890414
0.000890592
0.000891459
0.000891972
0.000892211
0.000893561
0.000894288
0.000894899
0.00089512
0.00089473
0.000893803
0.000892733
0.000891829
0.000891222
0.000891272
0.000890361
0.000889692
0.000889491
0.000889389
0.000889345
0.000889319
0.000889305
0.000889298
0.000889294
0.000889294
0.000889294
0.000889296
0.000889297
0.000889299
0.000889301
0.000889303
0.000889304
0.000889306
0.000889307
0.000889308
0.000889308
0.000889308
0.000889309
0.000889308
0.000887729
0.000887729
0.000887732
0.000887736
0.000887741
0.000887748
0.000887756
0.000887766
0.000887778
0.000887791
0.000887807
0.000887826
0.000887849
0.000887879
0.000887916
0.000887964
0.000888029
0.00088812
0.000888248
0.000888439
0.000888729
0.000889054
0.000889456
0.000890509
0.000891258
0.000892037
0.000894807
0.000896916
0.00089932
0.000900911
0.000900225
0.000897381
0.00089409
0.000891568
0.000890019
0.00089036
0.000888689
0.000888025
0.000887773
0.000887614
0.000887543
0.000887502
0.000887477
0.000887464
0.000887457
0.000887453
0.000887453
0.000887453
0.000887454
0.000887455
0.000887457
0.000887459
0.00088746
0.000887462
0.000887463
0.000887464
0.000887464
0.000887465
0.000887465
0.000887465
0.000885959
0.00088596
0.000885963
0.000885968
0.000885975
0.000885983
0.000885994
0.000886006
0.000886021
0.000886039
0.00088606
0.000886086
0.000886117
0.000886158
0.000886209
0.000886278
0.000886371
0.000886502
0.000886691
0.000886974
0.000887404
0.00088792
0.000888746
0.000890144
0.000891337
0.000893654
0.000899369
0.000906191
0.000917128
0.000927632
0.000926372
0.000913854
0.00090127
0.000893584
0.000889656
0.000889802
0.000887249
0.000886422
0.000886143
0.00088591
0.000885799
0.000885736
0.000885698
0.000885677
0.000885665
0.000885659
0.000885656
0.000885656
0.000885656
0.000885657
0.000885659
0.00088566
0.000885662
0.000885663
0.000885664
0.000885666
0.000885666
0.000885667
0.000885667
0.000885667
0.000884234
0.000884235
0.000884239
0.000884245
0.000884253
0.000884263
0.000884276
0.000884291
0.00088431
0.000884333
0.00088436
0.000884393
0.000884435
0.000884488
0.000884557
0.00088465
0.000884777
0.000884959
0.000885223
0.000885625
0.00088624
0.000887069
0.000888608
0.000890551
0.000892775
0.000898213
0.000910111
0.000932128
0.000437616
0.000276234
0.000282751
0.000446321
0.000927262
0.000901371
0.000891169
0.000889461
0.000886161
0.000884872
0.000884599
0.000884277
0.000884111
0.000884019
0.000883965
0.000883935
0.000883917
0.000883908
0.000883903
0.000883902
0.000883902
0.000883902
0.000883904
0.000883905
0.000883907
0.000883908
0.00088391
0.000883911
0.000883912
0.000883912
0.000883913
0.000883912
0.00088255
0.000882552
0.000882557
0.000882564
0.000882573
0.000882585
0.000882601
0.00088262
0.000882642
0.00088267
0.000882704
0.000882746
0.000882798
0.000882866
0.000882956
0.000883077
0.000883245
0.000883486
0.000883843
0.000884392
0.000885243
0.000886559
0.000889168
0.000891888
0.000896303
0.000906821
0.00093005
0.000593062
0.000214827
9.8099e-05
0.000112256
0.000191747
0.000449505
0.000922463
0.000896333
0.000889192
0.000885559
0.000883372
0.000883144
0.000882715
0.000882477
0.000882349
0.000882275
0.000882234
0.000882211
0.000882198
0.000882191
0.000882189
0.000882188
0.000882189
0.00088219
0.000882192
0.000882193
0.000882195
0.000882197
0.000882198
0.000882199
0.0008822
0.0008822
0.0008822
0.000880907
0.000880909
0.000880914
0.000880922
0.000880934
0.000880948
0.000880966
0.000880988
0.000881016
0.000881049
0.00088109
0.000881141
0.000881206
0.00088129
0.000881402
0.000881554
0.000881769
0.000882079
0.000882543
0.000883266
0.000884407
0.000886422
0.000890479
0.000894252
0.000902681
0.000919852
0.000954486
0.000905157
0.000193334
0.000194975
0.000323062
0.000897798
0.000906692
0.000888995
0.000885508
0.000881948
0.000881776
0.00088122
0.000880893
0.000880723
0.000880626
0.000880573
0.000880542
0.000880526
0.000880518
0.000880514
0.000880513
0.000880514
0.000880515
0.000880517
0.000880519
0.000880521
0.000880523
0.000880525
0.000880526
0.000880527
0.000880527
0.000880527
0.000879302
0.000879304
0.00087931
0.000879319
0.000879332
0.000879349
0.00087937
0.000879396
0.000879427
0.000879467
0.000879515
0.000879576
0.000879654
0.000879756
0.000879892
0.000880079
0.000880343
0.00088073
0.000881312
0.00088223
0.000883709
0.000886629
0.000892464
0.000897663
0.000912566
0.000937712
0.000977627
0.000730782
0.000284755
0.000276698
0.000133721
0.000387689
0.000867304
0.000921234
0.000889161
0.000885937
0.000880674
0.000880498
0.000879791
0.00087936
0.000879141
0.000879017
0.00087895
0.000878912
0.000878892
0.000878882
0.000878877
0.000878876
0.000878877
0.000878879
0.000878881
0.000878883
0.000878886
0.000878888
0.00087889
0.000878891
0.000878892
0.000878893
0.000878893
0.000877732
0.000877735
0.000877742
0.000877753
0.000877767
0.000877786
0.00087781
0.000877839
0.000877876
0.000877921
0.000877977
0.000878049
0.00087814
0.00087826
0.000878422
0.000878644
0.000878961
0.000879429
0.000880134
0.000881258
0.000883103
0.000887065
0.00089484
0.000901915
0.00092569
0.000961239
0.000995604
0.00075358
0.0018836
0.00180526
0.000419445
0.00015988
0.000647059
0.0010401
0.000936654
0.000890495
0.000886638
0.000879636
0.00087931
0.000878418
0.000877875
0.000877599
0.000877447
0.000877364
0.000877319
0.000877294
0.000877282
0.000877277
0.000877276
0.000877276
0.000877279
0.000877281
0.000877284
0.000877287
0.000877289
0.000877291
0.000877293
0.000877294
0.000877295
0.000877295
0.000876197
0.000876201
0.000876209
0.00087622
0.000876236
0.000876257
0.000876284
0.000876318
0.000876359
0.00087641
0.000876474
0.000876556
0.000876661
0.0008768
0.000876987
0.000877246
0.000877616
0.000878163
0.000878989
0.00088032
0.000882527
0.000887536
0.00089715
0.000906413
0.000939397
0.00098675
0.00101441
0.00120183
0.00514553
0.00336075
0.000598815
0.000242873
0.000983053
0.00107499
0.000949266
0.000893466
0.000887376
0.000878899
0.000878216
0.000877091
0.000876436
0.000876095
0.000875912
0.000875813
0.000875759
0.000875731
0.000875717
0.000875711
0.00087571
0.000875711
0.000875713
0.000875716
0.00087572
0.000875723
0.000875726
0.000875728
0.00087573
0.000875732
0.000875732
0.000875733
0.000874695
0.000874699
0.000874708
0.000874721
0.000874739
0.000874762
0.000874791
0.000874829
0.000874874
0.000874932
0.000875004
0.000875095
0.000875214
0.000875371
0.000875583
0.000875877
0.000876297
0.000876921
0.000877861
0.000879385
0.000881911
0.000887843
0.000898926
0.00091029
0.000949957
0.00100784
0.00105234
0.00128493
0.00603261
0.00951023
0.00114364
0.000571735
0.00114829
0.00109535
0.00095625
0.000897609
0.000887989
0.00087847
0.000877221
0.000875802
0.00087504
0.000874626
0.000874413
0.000874295
0.000874233
0.0008742
0.000874184
0.000874178
0.000874177
0.000874178
0.000874181
0.000874185
0.000874189
0.000874193
0.000874196
0.000874199
0.000874201
0.000874203
0.000874204
0.000874204
0.000873225
0.000873229
0.000873238
0.000873252
0.000873272
0.000873297
0.00087333
0.00087337
0.000873421
0.000873484
0.000873564
0.000873665
0.000873797
0.000873971
0.000874206
0.000874533
0.000875
0.000875697
0.000876736
0.000878429
0.000881207
0.000887851
0.000899979
0.000912989
0.00095606
0.00102143
0.0010876
0.0012513
0.00475857
0.0118018
0.00261106
0.000940035
0.00124116
0.00110275
0.000959086
0.000901764
0.000888439
0.000878288
0.000876326
0.000874543
0.000873686
0.000873193
0.000872948
0.00087281
0.00087274
0.000872702
0.000872684
0.000872677
0.000872676
0.000872678
0.000872682
0.000872686
0.000872691
0.000872695
0.000872699
0.000872702
0.000872704
0.000872706
0.000872707
0.000872708
0.000871784
0.000871789
0.000871799
0.000871814
0.000871835
0.000871863
0.000871898
0.000871942
0.000871997
0.000872066
0.000872152
0.000872263
0.000872406
0.000872595
0.000872852
0.000873211
0.000873722
0.000874483
0.000875607
0.000877438
0.000880406
0.000887547
0.000900395
0.000914488
0.000958832
0.00102803
0.00111258
0.00118785
0.0036446
0.00896084
0.00409529
0.00113153
0.00129137
0.00110687
0.000959923
0.000904563
0.000888873
0.00087824
0.000875522
0.000873314
0.000872371
0.000871792
0.000871516
0.000871358
0.000871278
0.000871236
0.000871216
0.000871208
0.000871207
0.00087121
0.000871214
0.000871219
0.000871224
0.000871228
0.000871233
0.000871236
0.000871239
0.000871241
0.000871243
0.000871243
0.000870372
0.000870378
0.000870388
0.000870405
0.000870427
0.000870457
0.000870494
0.000870542
0.000870601
0.000870674
0.000870767
0.000870886
0.00087104
0.000871244
0.000871522
0.000871909
0.000872457
0.000873273
0.000874472
0.000876413
0.000879559
0.000886999
0.000900258
0.000915045
0.000959491
0.00103165
0.00112961
0.00113171
0.00285808
0.00649387
0.00552867
0.00122888
0.0013222
0.0011163
0.000962788
0.000905293
0.000889381
0.000878214
0.000874798
0.00087212
0.000871097
0.000870427
0.000870118
0.000869937
0.000869848
0.0008698
0.000869778
0.00086977
0.000869769
0.000869771
0.000869776
0.000869781
0.000869787
0.000869792
0.000869797
0.000869801
0.000869804
0.000869806
0.000869808
0.000869809
0.000868988
0.000868994
0.000869005
0.000869023
0.000869047
0.000869078
0.000869118
0.000869168
0.000869231
0.000869309
0.000869407
0.000869533
0.000869697
0.000869916