/*--------------------------------*- C++ -*----------------------------------*\
  =========                 |
  \\      /  F ield         | OpenFOAM: The Open Source CFD Toolbox
   \\    /   O peration     | Website:  https://openfoam.org
    \\  /    A nd           | Version:  12
     \\/     M anipulation  |
\*---------------------------------------------------------------------------*/
FoamFile
{
    format      ascii;
    class       volScalarField;
    location    "260";
    object      omega;
}
// * * * * * * * * * * * * * * * * * * * * * * * * * * * * * * * * * * * * * //

dimensions      [0 0 -1 0 0 0 0];

internalField   nonuniform List<scalar> 
16227
(
9.34702
9.34704
9.34704
9.34707
9.34706
9.3471
9.34709
9.34708
9.34707
9.34709
9.34713
9.34715
9.3472
9.3472
9.3472
9.3472
9.3472
9.3472
9.3472
9.3472
9.3472
9.3472
9.3472
9.3472
9.3472
9.3472
9.3472
9.34722
9.34722
9.3472
9.34721
9.3472
9.3472
9.3472
9.34721
9.3472
9.3472
9.3472
9.3472
9.3472
9.3472
9.3472
9.3472
9.3472
9.3472
9.3472
9.3472
9.34719
9.34717
9.34717
9.34717
9.34716
9.3471
9.3471
9.34706
9.34705
9.34707
9.34705
9.34703
9.34702
8.71805
8.71807
8.71807
8.7181
8.71811
8.71814
8.71813
8.7181
8.71811
8.71812
8.71817
8.71819
8.71833
8.71839
8.7184
8.7184
8.7184
8.7184
8.7184
8.7184
8.71841
8.71842
8.71842
8.71842
8.71842
8.71843
8.71842
8.71842
8.7184
8.71835
8.71841
8.71843
8.71843
8.71843
8.71843
8.71842
8.7184
8.7184
8.7184
8.71841
8.71841
8.71841
8.71841
8.71839
8.71839
8.71838
8.71838
8.71838
8.71838
8.71837
8.71834
8.71829
8.71818
8.71816
8.71813
8.71811
8.71814
8.71807
8.71808
8.71806
8.16619
8.16621
8.16621
8.16623
8.16622
8.16631
8.16626
8.16625
8.16626
8.16627
8.16631
8.16632
8.16657
8.16663
8.16663
8.16664
8.16664
8.16664
8.16666
8.16661
8.16664
8.16665
8.16665
8.16665
8.16665
8.16665
8.16665
8.16665
8.16664
8.16658
8.16664
8.16665
8.16666
8.16666
8.16667
8.16667
8.16667
8.16666
8.16666
8.16666
8.16666
8.16667
8.16666
8.16665
8.16665
8.16665
8.16664
8.16664
8.16664
8.16661
8.16658
8.16639
8.16631
8.1663
8.16628
8.16627
8.16631
8.16621
8.16623
8.1662
7.6783
7.67831
7.67832
7.67833
7.67833
7.6784
7.6784
7.67836
7.67837
7.67836
7.67841
7.67846
7.67871
7.67878
7.6788
7.67881
7.67881
7.67883
7.67876
7.67864
7.67875
7.67879
7.67878
7.67879
7.67879
7.67879
7.67879
7.67879
7.67877
7.67869
7.67877
7.6788
7.6788
7.67881
7.67881
7.67883
7.67884
7.67884
7.67885
7.67885
7.67886
7.67885
7.67885
7.67886
7.67885
7.67885
7.67885
7.67885
7.67885
7.67882
7.67871
7.67852
7.67842
7.67844
7.67844
7.67845
7.67843
7.67836
7.67836
7.67834
7.24404
7.24406
7.24406
7.24408
7.24408
7.24414
7.24416
7.2441
7.24411
7.24411
7.24414
7.24419
7.24443
7.24455
7.24457
7.24456
7.24456
7.24454
7.24433
7.24426
7.24444
7.24451
7.24451
7.2445
7.24449
7.24448
7.24448
7.24449
7.24447
7.24438
7.24448
7.24451
7.24453
7.24454
7.24455
7.24457
7.24459
7.24461
7.24462
7.24463
7.24465
7.24466
7.24466
7.24467
7.24467
7.24468
7.24468
7.24468
7.24468
7.2446
7.24436
7.24425
7.24418
7.24421
7.24422
7.24427
7.24421
7.24413
7.24413
7.24412
6.85518
6.8552
6.8552
6.85521
6.85521
6.85525
6.85529
6.85524
6.85521
6.8552
6.85521
6.85524
6.85535
6.85562
6.85567
6.85568
6.85567
6.85556
6.85533
6.85528
6.85549
6.85555
6.85554
6.85552
6.85551
6.85551
6.85551
6.8555
6.85548
6.8554
6.8555
6.85554
6.85557
6.8556
6.85563
6.85565
6.85569
6.85571
6.85574
6.85576
6.85579
6.85581
6.85582
6.85585
6.85585
6.85586
6.85587
6.85588
6.85587
6.85574
6.8555
6.85539
6.85535
6.8554
6.85544
6.85543
6.85537
6.85531
6.85531
6.85529
6.50506
6.50508
6.50507
6.50508
6.50507
6.50511
6.50514
6.50512
6.50507
6.50505
6.50503
6.50502
6.50511
6.50536
6.50548
6.50549
6.50545
6.50515
6.50502
6.50501
6.50522
6.50527
6.50524
6.50522
6.50521
6.50519
6.50518
6.50518
6.50517
6.50508
6.50519
6.50525
6.50528
6.50532
6.50537
6.50541
6.50546
6.50551
6.50555
6.5056
6.50563
6.50567
6.5057
6.50573
6.50576
6.50577
6.50578
6.5058
6.50573
6.50547
6.50534
6.50526
6.50526
6.50533
6.50534
6.50533
6.50528
6.50522
6.50523
6.50521
6.18825
6.18825
6.18825
6.18826
6.18824
6.18827
6.1883
6.18828
6.18823
6.18818
6.18815
6.18809
6.18812
6.18824
6.18851
6.18857
6.18849
6.18814
6.18802
6.188
6.18821
6.18825
6.1882
6.18817
6.18814
6.18812
6.18811
6.18811
6.18808
6.188
6.18813
6.1882
6.18825
6.18831
6.18837
6.18843
6.1885
6.18857
6.18863
6.1887
6.18877
6.18881
6.18886
6.1889
6.18894
6.18896
6.18899
6.18899
6.18887
6.18862
6.1885
6.18846
6.18851
6.18855
6.18854
6.18854
6.18849
6.18844
6.18845
6.18843
5.90028
5.90028
5.90028
5.90027
5.90026
5.90027
5.90029
5.90026
5.90024
5.90016
5.9001
5.90002
5.90002
5.90009
5.9004
5.90047
5.90029
5.89996
5.89984
5.8998
5.9
5.90001
5.89995
5.89989
5.89985
5.89982
5.8998
5.8998
5.89978
5.89969
5.89983
5.89991
5.89999
5.90007
5.90015
5.90024
5.90033
5.90043
5.90052
5.9006
5.90068
5.90077
5.90083
5.90088
5.90093
5.90099
5.90101
5.90095
5.9007
5.90057
5.9005
5.90054
5.90055
5.90059
5.90059
5.90058
5.90055
5.9005
5.9005
5.9005
5.63744
5.63744
5.63742
5.63743
5.6374
5.63741
5.63742
5.63738
5.63734
5.63729
5.6372
5.63709
5.63707
5.63713
5.63736
5.63742
5.63708
5.63685
5.63674
5.6367
5.63686
5.63685
5.63677
5.6367
5.63664
5.6366
5.63657
5.63656
5.63654
5.63646
5.63661
5.63671
5.63679
5.6369
5.63701
5.63712
5.63725
5.63737
5.6375
5.6376
5.63771
5.63781
5.63791
5.63799
5.63805
5.63811
5.63815
5.63806
5.6378
5.63769
5.63768
5.6377
5.63772
5.63776
5.63776
5.63776
5.63773
5.63769
5.63769
5.63768
5.39663
5.39663
5.39661
5.3966
5.39658
5.39658
5.39657
5.39652
5.39647
5.3964
5.39632
5.39618
5.39609
5.39609
5.39615
5.39631
5.39598
5.39578
5.39565
5.39558
5.39566
5.39566
5.39557
5.39547
5.39539
5.39533
5.39529
5.39527
5.39526
5.39518
5.39534
5.39546
5.39557
5.39569
5.39584
5.39599
5.39615
5.3963
5.39645
5.3966
5.39674
5.39686
5.39698
5.39708
5.39717
5.39723
5.3972
5.39708
5.39692
5.39685
5.39686
5.39688
5.3969
5.39695
5.39695
5.39696
5.39693
5.39689
5.3969
5.39689
5.17523
5.17522
5.17521
5.17519
5.17516
5.17516
5.17513
5.17508
5.17501
5.17493
5.17483
5.1747
5.17456
5.17448
5.17449
5.17459
5.17432
5.1741
5.17393
5.1738
5.17372
5.1738
5.17372
5.1736
5.17349
5.17341
5.17336
5.17333
5.17331
5.17324
5.17342
5.17355
5.17369
5.17385
5.17402
5.17421
5.1744
5.17459
5.17478
5.17496
5.17514
5.17529
5.17543
5.17557
5.17567
5.17571
5.17559
5.17554
5.17547
5.17542
5.17543
5.17547
5.17549
5.17553
5.17554
5.17555
5.17553
5.17549
5.1755
5.17549
4.97102
4.97101
4.97099
4.97097
4.97094
4.97092
4.97088
4.97082
4.97073
4.97064
4.97053
4.97037
4.97022
4.97006
4.96995
4.96988
4.96977
4.96959
4.96938
4.9692
4.96904
4.96912
4.96902
4.96886
4.96872
4.96862
4.96854
4.96851
4.96848
4.96842
4.96861
4.96877
4.96893
4.96913
4.96934
4.96957
4.9698
4.97003
4.97027
4.97049
4.9707
4.9709
4.97106
4.97122
4.97132
4.97135
4.97125
4.97126
4.97119
4.97116
4.97118
4.97122
4.97126
4.97129
4.97131
4.97132
4.9713
4.97127
4.97127
4.97126
4.7821
4.7821
4.78207
4.78205
4.78201
4.78198
4.78193
4.78185
4.78175
4.78164
4.78151
4.78134
4.78116
4.78098
4.78078
4.78066
4.78055
4.78035
4.7801
4.77988
4.77967
4.77971
4.77955
4.77936
4.77919
4.77905
4.77895
4.7789
4.77888
4.77882
4.77902
4.7792
4.7794
4.77963
4.77989
4.78016
4.78045
4.78073
4.78101
4.78128
4.78152
4.78176
4.78195
4.78212
4.78218
4.78218
4.78221
4.78223
4.78219
4.78218
4.78221
4.78225
4.78229
4.78233
4.78235
4.78236
4.78234
4.78232
4.78233
4.78231
4.60685
4.60684
4.60682
4.60678
4.60674
4.6067
4.60664
4.60655
4.60645
4.60631
4.60616
4.60596
4.60576
4.60554
4.60533
4.60515
4.60502
4.60476
4.60446
4.60418
4.60392
4.6039
4.60371
4.60346
4.60324
4.60308
4.60295
4.60289
4.60285
4.6028
4.60302
4.60323
4.60347
4.60374
4.60405
4.60437
4.60471
4.60505
4.60538
4.6057
4.60599
4.60626
4.60649
4.60664
4.60663
4.60672
4.60678
4.60683
4.60683
4.60684
4.60689
4.60693
4.60697
4.60702
4.60704
4.60705
4.60703
4.60702
4.60702
4.60701
4.44385
4.44384
4.44381
4.44378
4.44373
4.44368
4.44361
4.44351
4.44339
4.44324
4.44306
4.44285
4.44262
4.44237
4.44212
4.44191
4.44171
4.44142
4.44106
4.44072
4.44041
4.44027
4.44005
4.43976
4.4395
4.43929
4.43913
4.43904
4.439
4.43895
4.43919
4.43943
4.43971
4.44003
4.4404
4.44079
4.44119
4.44159
4.44197
4.44234
4.44268
4.44299
4.44324
4.44338
4.44342
4.44352
4.44362
4.44365
4.44368
4.44373
4.4438
4.44385
4.44389
4.44394
4.44396
4.44397
4.44396
4.44395
4.44395
4.44394
4.29189
4.29187
4.29185
4.2918
4.29175
4.29169
4.29161
4.2915
4.29137
4.2912
4.29101
4.29077
4.29052
4.29023
4.28994
4.28969
4.28945
4.28908
4.28867
4.28825
4.28786
4.28752
4.28735
4.28704
4.28673
4.28646
4.28627
4.28615
4.2861
4.28606
4.28631
4.28659
4.28692
4.2873
4.28772
4.28818
4.28866
4.28912
4.28957
4.28999
4.29039
4.29072
4.29094
4.29107
4.29121
4.29137
4.29149
4.29153
4.29157
4.29165
4.29172
4.29178
4.29182
4.29187
4.2919
4.29191
4.2919
4.29188
4.29189
4.29188
4.14989
4.14987
4.14985
4.1498
4.14974
4.14968
4.14959
4.14947
4.14932
4.14914
4.14893
4.14867
4.14838
4.14807
4.14774
4.14743
4.14714
4.14673
4.14625
4.14575
4.14527
4.14481
4.1446
4.14424
4.14385
4.14353
4.14329
4.14314
4.14307
4.14303
4.14332
4.14363
4.14401
4.14446
4.14496
4.1455
4.14605
4.14659
4.14711
4.1476
4.14803
4.14838
4.14853
4.14876
4.14897
4.14917
4.1493
4.14936
4.14943
4.14952
4.1496
4.14966
4.1497
4.14975
4.14978
4.14979
4.14978
4.14977
4.14977
4.14976
4.01693
4.01691
4.01688
4.01684
4.01677
4.0167
4.01661
4.01647
4.01632
4.01612
4.01589
4.01561
4.01529
4.01495
4.01457
4.01422
4.01386
4.01339
4.01285
4.01227
4.0117
4.01117
4.01081
4.0104
4.00995
4.00955
4.00926
4.00907
4.00898
4.00895
4.00925
4.00961
4.01006
4.01059
4.01118
4.01181
4.01245
4.01307
4.01366
4.0142
4.01469
4.01505
4.01525
4.01553
4.01578
4.01599
4.0161
4.01619
4.0163
4.01641
4.01649
4.01655
4.0166
4.01665
4.01667
4.01669
4.01667
4.01667
4.01667
4.01666
3.89219
3.89216
3.89213
3.89208
3.89201
3.89194
3.89185
3.8917
3.89153
3.89132
3.89108
3.89078
3.89044
3.89006
3.88965
3.88922
3.8888
3.88827
3.88766
3.88701
3.88633
3.88568
3.88509
3.88469
3.88418
3.88371
3.88335
3.88311
3.883
3.88297
3.8833
3.88372
3.88424
3.88486
3.88555
3.88629
3.88703
3.88774
3.88839
3.88896
3.88946
3.88984
3.89018
3.89051
3.8908
3.89101
3.89113
3.89125
3.89138
3.89149
3.89157
3.89163
3.89169
3.89173
3.89176
3.89177
3.89176
3.89175
3.89175
3.89174
3.77493
3.7749
3.77487
3.77483
3.77475
3.77468
3.77458
3.77443
3.77425
3.77403
3.77377
3.77345
3.77309
3.77268
3.77221
3.7717
3.7712
3.77065
3.76998
3.76923
3.76846
3.76767
3.76694
3.76645
3.76585
3.76528
3.76484
3.76454
3.7644
3.76437
3.76473
3.76521
3.76583
3.76656
3.76737
3.76823
3.76908
3.76987
3.77059
3.77123
3.77172
3.77218
3.77261
3.77299
3.77329
3.77348
3.77363
3.77379
3.77393
3.77404
3.77413
3.77419
3.77424
3.77428
3.7743
3.77431
3.7743
3.7743
3.7743
3.77428
3.66452
3.66449
3.66446
3.66441
3.66434
3.66426
3.66415
3.66401
3.66383
3.6636
3.66332
3.66299
3.66261
3.66217
3.66166
3.6611
3.66052
3.65991
3.65916
3.65832
3.65743
3.65653
3.65566
3.655
3.65429
3.65362
3.65308
3.65271
3.65253
3.6525
3.65289
3.65345
3.65418
3.65504
3.656
3.65701
3.65796
3.65884
3.65965
3.66037
3.66092
3.66145
3.66193
3.66233
3.66263
3.66282
3.663
3.66317
3.66331
3.66342
3.6635
3.66356
3.66361
3.66365
3.66367
3.66368
3.66368
3.66367
3.66367
3.66365
3.56038
3.56035
3.56032
3.56027
3.5602
3.56013
3.56002
3.55987
3.55969
3.55946
3.55918
3.55883
3.55844
3.55797
3.55743
3.55682
3.55617
3.55548
3.55466
3.55371
3.5527
3.55165
3.55064
3.54973
3.54904
3.54823
3.54758
3.54712
3.54688
3.54682
3.54726
3.54792
3.54877
3.54979
3.55092
3.5521
3.55311
3.55409
3.55494
3.55573
3.55641
3.55701
3.55752
3.55791
3.55819
3.55842
3.55863
3.55881
3.55895
3.55906
3.55914
3.5592
3.55924
3.55928
3.55929
3.5593
3.55929
3.55928
3.55928
3.55926
3.462
3.46197
3.46195
3.4619
3.46184
3.46176
3.46166
3.46151
3.46133
3.4611
3.46082
3.46046
3.46005
3.45957
3.459
3.45834
3.45761
3.45682
3.45594
3.45492
3.45379
3.4526
3.45142
3.45079
3.49773
3.49691
3.49618
3.49565
3.49537
3.49529
3.49574
3.49644
3.49736
3.49847
3.49972
3.501
3.45452
3.45515
3.4561
3.45697
3.45773
3.45838
3.45889
3.45925
3.45954
3.4598
3.46003
3.46021
3.46034
3.46044
3.46052
3.46057
3.4606
3.46064
3.46065
3.46065
3.46065
3.46063
3.46063
3.46061
3.36893
3.3689
3.36888
3.36884
3.36878
3.3687
3.36861
3.36847
3.36829
3.36807
3.36779
3.36743
3.36702
3.36652
3.36594
3.36524
3.36444
3.36355
3.36259
3.36152
3.36027
3.35895
3.35811
3.40236
3.39949
3.39866
3.39776
3.39708
3.39668
3.39653
3.39699
3.39777
3.39885
3.40017
3.40165
3.40308
3.4063
3.36205
3.36272
3.36364
3.36444
3.36509
3.36559
3.36595
3.36624
3.36651
3.36673
3.3669
3.36702
3.36712
3.36718
3.36723
3.36726
3.36728
3.36729
3.36729
3.36728
3.36727
3.36726
3.36724
3.28075
3.28072
3.2807
3.28067
3.28061
3.28055
3.28046
3.28033
3.28016
3.27995
3.27968
3.27934
3.27893
3.27843
3.27783
3.27711
3.27628
3.27533
3.27428
3.27312
3.27179
3.27035
3.26972
3.30963
3.30691
3.32831
3.32739
3.32659
3.32606
3.3258
3.32623
3.32703
3.3282
3.32968
3.33138
3.31084
3.31384
3.27393
3.27435
3.27529
3.27609
3.27671
3.27717
3.27754
3.27786
3.27812
3.27832
3.27847
3.27859
3.27867
3.27872
3.27876
3.27878
3.2788
3.2788
3.2788
3.27878
3.27876
3.27876
3.27873
3.1971
3.19707
3.19705
3.19702
3.19698
3.19693
3.19685
3.19673
3.19659
3.19639
3.19613
3.1958
3.1954
3.19492
3.19432
3.1936
3.19275
3.19176
3.19063
3.18938
3.18799
3.18651
3.1861
3.22199
3.21962
3.23853
3.23794
3.23697
3.23619
3.23573
3.23593
3.23664
3.23786
3.23953
3.24142
3.22397
3.22624
3.19053
3.19066
3.19156
3.19231
3.19287
3.19332
3.1937
3.19401
3.19425
3.19443
3.19456
3.19466
3.19473
3.19477
3.19479
3.19481
3.19482
3.19481
3.19481
3.19479
3.19477
3.19476
3.19474
3.11763
3.1176
3.11759
3.11757
3.11754
3.1175
3.11744
3.11734
3.11721
3.11704
3.11681
3.1165
3.11613
3.11566
3.11509
3.11438
3.11354
3.11254
3.11137
3.11005
3.10862
3.10714
3.10704
3.13943
3.13726
3.15385
3.15389
3.15276
3.1518
3.15112
3.15109
3.1516
3.1527
3.15435
3.15642
3.14195
3.14333
3.11152
3.11131
3.1121
3.11277
3.1133
3.11373
3.11409
3.11436
3.11457
3.11472
3.11484
3.11491
3.11496
3.11498
3.115
3.115
3.115
3.115
3.11498
3.11496
3.11494
3.11494
3.1149
3.04205
3.04202
3.04202
3.04201
3.04199
3.04196
3.04192
3.04185
3.04174
3.0416
3.0414
3.04113
3.04079
3.04036
3.03983
3.03916
3.03835
3.03738
3.03623
3.03492
3.0335
3.03206
3.03241
3.06185
3.05988
3.07491
3.07582
3.07504
3.07441
3.07389
3.0735
3.07316
3.07335
3.0743
3.07608
3.06495
3.06493
3.03657
3.036
3.03661
3.03721
3.0377
3.03809
3.03839
3.03861
3.03878
3.0389
3.03898
3.03903
3.03906
3.03907
3.03907
3.03907
3.03906
3.03905
3.03903
3.03901
3.03898
3.03897
3.03894
2.97007
2.97005
2.97005
2.97006
2.97005
2.97005
2.97003
2.96998
2.96991
2.96979
2.96964
2.96941
2.96912
2.96875
2.96827
2.96766
2.96692
2.96603
2.96496
2.96375
2.96245
2.96119
2.96223
2.98931
2.9877
3.00229
3.00574
3.00699
3.00962
3.01172
3.0107
3.00654
3.00237
3.00048
3.00058
2.99278
2.99085
2.96542
2.96456
2.96494
2.96541
2.96579
2.96608
2.96631
2.96647
2.96659
2.96667
2.96672
2.96674
2.96675
2.96675
2.96674
2.96672
2.96671
2.96669
2.96667
2.96664
2.96662
2.9666
2.96657
2.90146
2.90144
2.90145
2.90146
2.90148
2.90149
2.9015
2.90148
2.90144
2.90138
2.90127
2.9011
2.90087
2.90057
2.90016
2.89965
2.89902
2.89824
2.89733
2.89631
2.89529
2.89445
2.89662
2.92193
2.92137
2.93807
2.94707
2.95795
2.97938
3.00201
2.99984
2.97373
2.94902
2.93595
2.93105
2.92518
2.92105
2.89781
2.89676
2.89681
2.89707
2.89729
2.89746
2.89759
2.89769
2.89774
2.89778
2.8978
2.8978
2.89779
2.89777
2.89775
2.89772
2.8977
2.89768
2.89765
2.89762
2.8976
2.89758
2.89755
2.83597
2.83595
2.83597
2.836
2.83603
2.83607
2.83611
2.83612
2.83613
2.83611
2.83605
2.83595
2.8358
2.83558
2.83528
2.83489
2.83439
2.83379
2.83311
2.83239
2.83181
2.8318
2.83588
2.86008
2.86195
2.88458
2.90637
2.95379
3.09569
3.33219
3.32241
3.09457
2.94578
2.88934
2.87026
2.86151
2.85562
2.83358
2.83234
2.83196
2.83192
2.83194
2.83197
2.832
2.83201
2.83202
2.83201
2.83199
2.83197
2.83194
2.83191
2.83187
2.83184
2.83181
2.83178
2.83175
2.83172
2.8317
2.83168
2.83165
2.7734
2.77339
2.77342
2.77346
2.77351
2.77357
2.77364
2.77369
2.77374
2.77378
2.77378
2.77376
2.77369
2.77357
2.7734
2.77315
2.77284
2.77247
2.77208
2.77179
2.77184
2.77314
2.77999
2.80404
2.81124
2.8438
2.89051
3.06201
3.94826
8.42695
7.72937
4.27651
3.11445
2.87909
2.82213
2.80156
2.79483
2.77238
2.771
2.77011
2.76971
2.7695
2.76937
2.76928
2.76922
2.76917
2.76912
2.76908
2.76903
2.76899
2.76894
2.7689
2.76886
2.76883
2.7688
2.76877
2.76873
2.76871
2.76869
2.76866
2.71356
2.71355
2.71359
2.71365
2.71372
2.71381
2.7139
2.714
2.7141
2.71419
2.71426
2.71432
2.71434
2.71435
2.71431
2.71423
2.71414
2.71405
2.71403
2.71427
2.71513
2.71829
2.72878
2.75366
2.77035
2.81621
2.89909
3.39056
12.7944
12.6578
3.70017
2.9224
2.7901
2.74495
2.73831
2.71393
2.71242
2.71096
2.71016
2.7097
2.70942
2.70923
2.70909
2.70899
2.70891
2.70884
2.70878
2.70872
2.70867
2.70863
2.70859
2.70855
2.70852
2.70849
2.70846
2.70844
2.70843
2.7084
2.65626
2.65626
2.65631
2.65638
2.65648
2.65659
2.65672
2.65686
2.65701
2.65716
2.6573
2.65744
2.65758
2.6577
2.65782
2.65794
2.65808
2.65831
2.65872
2.65958
2.6614
2.6669
2.68172
2.70854
2.74006
2.8022
2.95316
4.682
45.2921
135.841
163.759
4.28538
2.9898
2.77004
2.69193
2.6854
2.65819
2.65641
2.65435
2.65314
2.65244
2.652
2.65171
2.65151
2.65137
2.65125
2.65116
2.65109
2.65102
2.65097
2.65092
2.65088
2.65084
2.65081
2.65078
2.65075
2.65073
2.65072
2.65069
2.60136
2.60136
2.60142
2.60151
2.60162
2.60177
2.60193
2.60211
2.60231
2.60252
2.60274
2.60297
2.60321
2.60347
2.60375
2.60406
2.60447
2.60504
2.60591
2.60742
2.61028
2.61841
2.63788
2.66789
2.71905
2.804
3.19703
13.4085
70.2881
90.6815
132.929
59.8351
4.38672
3.03209
2.75243
2.6434
2.63497
2.60494
2.60266
2.59998
2.59839
2.59747
2.5969
2.59653
2.59628
2.5961
2.59597
2.59586
2.59578
2.59571
2.59566
2.59561
2.59556
2.59553
2.5955
2.59547
2.59544
2.59542
2.59541
2.59538
2.5487
2.5487
2.54877
2.54888
2.54901
2.54918
2.54938
2.5496
2.54985
2.55012
2.55042
2.55073
2.55109
2.55147
2.55191
2.55244
2.5531
2.554
2.55533
2.55749
2.56137
2.57208
2.59582
2.62982
2.70071
2.81379
3.67422
21.63
71.9783
72.0618
129.491
28.681
4.29443
3.03584
2.7274
2.59955
2.58592
2.55398
2.55089
2.54762
2.54573
2.54461
2.54395
2.54352
2.54323
2.54304
2.5429
2.54279
2.54271
2.54264
2.54258
2.54253
2.54249
2.54246
2.54243
2.5424
2.54238
2.54236
2.54235
2.54232
2.49813
2.49815
2.49823
2.49835
2.4985
2.49869
2.49892
2.49919
2.49948
2.49982
2.50018
2.50059
2.50104
2.50156
2.50216
2.50287
2.50376
2.50496
2.50671
2.50951
2.51434
2.52724
2.5543
2.59208
2.67642
2.81317
3.87856
21.1495
61.2277
55.5144
61.1992
12.3983
4.10019
3.00285
2.68862
2.55877
2.53758
2.50508
2.5009
2.49705
2.49498
2.49372
2.493
2.49254
2.49224
2.49204
2.49191
2.4918
2.49173
2.49167
2.49161
2.49157
2.49153
2.4915
2.49148
2.49145
2.49143
2.49141
2.4914
2.49137
2.44955
2.44957
2.44966
2.44979
2.44996
2.45018
2.45044
2.45074
2.45109
2.45148
2.45191
2.4524
2.45295
2.45357
2.4543
2.45515
2.45626
2.45779
2.45995
2.46332
2.46892
2.48338
2.51261
2.55306
2.6431
2.79272
3.84204
17.7987
48.9275
48.4362
33.3457
7.6758
3.87559
2.94322
2.6398
2.51791
2.48983
2.45802
2.45262
2.44816
2.44601
2.44465
2.44392
2.44347
2.44319
2.443
2.44288
2.44279
2.44272
2.44267
2.44263
2.44259
2.44256
2.44254
2.44252
2.4425
2.44248
2.44246
2.44245
2.44243
2.40282
2.40285
2.40295
2.40309
2.40328
2.40352
2.40381
2.40415
2.40454
2.40498
2.40548
2.40603
2.40666
2.40735
2.40819
2.40924
2.41059
2.41241
2.4149
2.41871
2.42486
2.44028
2.47077
2.51245
2.6032
2.75599
3.71132
14.3754
39.3808
43.1796
24.1627
6.21706
3.69383
2.87968
2.58716
2.47474
2.44296
2.41236
2.4059
2.40081
2.39868
2.39727
2.39659
2.39619
2.39595
2.3958
2.3957
2.39563
2.39558
2.39554
2.39552
2.39549
2.39547
2.39545
2.39544
2.39542
2.39541
2.39539
2.39539
2.39536
2.35785
2.35788
2.35798
2.35814
2.35835
2.35861
2.35893
2.3593
2.35972
2.36021
2.36075
2.36136
2.36204
2.36284
2.36382
2.36504
2.36657
2.36862
2.37138
2.37552
2.38211
2.39796
2.42886
2.47073
2.55959
2.71276
3.55075
11.7086
32.3328
38.4514
22.4176
5.7322
3.56593
2.82918
2.5396
2.42789
2.39752
2.36813
2.36077
2.35503
2.35302
2.35163
2.35098
2.35061
2.35044
2.35033
2.35027
2.35023
2.35021
2.35019
2.35017
2.35016
2.35015
2.35014
2.35013
2.35012
2.35011
2.3501
2.3501
2.35007
2.31453
2.31456
2.31467
2.31484
2.31506
2.31534
2.31568
2.31608
2.31654
2.31705
2.31761
2.31826
2.31904
2.31995
2.32105
2.32239
2.32407
2.32629
2.32928
2.33363
2.34056
2.35644
2.38727
2.42838
2.51433
2.67083
3.39294
9.72843
26.9051
34.4158
23.319
5.66841
3.49931
2.79782
2.50404
2.37839
2.35403
2.32511
2.31723
2.31095
2.30896
2.3076
2.30704
2.30669
2.30654
2.30649
2.3065
2.3065
2.3065
2.30651
2.30651
2.30651
2.30651
2.30651
2.30651
2.3065
2.30649
2.30649
2.30648
2.30646
2.27277
2.27281
2.27292
2.2731
2.27333
2.27363
2.27399
2.27441
2.27489
2.27541
2.27601
2.27673
2.27758
2.27857
2.27974
2.28118
2.28297
2.28533
2.28847
2.29294
2.30013
2.31584
2.34619
2.38608
2.46888
2.63045
3.24372
8.16637
22.4597
30.8208
23.8353
7.13172
3.5064
2.80956
2.49501
2.332
2.3139
2.28321
2.27508
2.26854
2.26653
2.26513
2.26466
2.26439
2.26428
2.26426
2.26429
2.26435
2.26439
2.26441
2.26443
2.26445
2.26446
2.26447
2.26447
2.26447
2.26447
2.26446
2.26446
2.26444
2.23248
2.23252
2.23265
2.23283
2.23307
2.23339
2.23376
2.23418
2.23467
2.23523
2.23589
2.23665
2.23754
2.23859
2.23982
2.24132
2.2432
2.24564
2.2489
2.25338
2.26084
2.27618
2.30588
2.34442
2.42405
2.58953
3.10748
6.91445
18.6284
27.3813
24.0564
11.4502
4.23059
2.97017
2.53665
2.30999
2.27785
2.24267
2.2343
2.22773
2.22564
2.22426
2.22377
2.22358
2.22353
2.22354
2.2236
2.22369
2.22377
2.22382
2.22386
2.22389
2.22391
2.22393
2.22394
2.22395
2.22395
2.22395
2.22395
2.22393
2.19359
2.19364
2.19376
2.19395
2.19421
2.19452
2.19489
2.19532
2.19584
2.19644
2.19713
2.19793
2.19885
2.19993
2.2012
2.20275
2.20468
2.20716
2.21049
2.21497
2.22259
2.23746
2.26661
2.30395
2.38028
2.54942
2.99243
5.89457
15.2486
23.9762
23.6496
15.6846
6.57055
3.60013
2.68339
2.34389
2.24472
2.20385
2.19488
2.18848
2.18622
2.1849
2.18441
2.18421
2.18418
2.18423
2.18435
2.18447
2.18457
2.18466
2.18472
2.18476
2.1848
2.18482
2.18484
2.18485
2.18486
2.18486
2.18486
2.18485
2.15602
2.15607
2.1562
2.1564
2.15665
2.15696
2.15734
2.1578
2.15833
2.15895
2.15966
2.16048
2.16142
2.16252
2.16382
2.16539
2.16734
2.1698
2.17317
2.17763
2.18534
2.19972
2.22864
2.26526
2.33788
2.5133
2.89855
5.04971
12.2636
20.5161
22.3659
18.1401
9.93678
4.51482
2.9454
2.43702
2.21705
2.16722
2.15689
2.1507
2.14823
2.14696
2.14647
2.1463
2.14629
2.14636
2.14647
2.14662
2.14674
2.14685
2.14694
2.147
2.14704
2.14708
2.1471
2.14712
2.14712
2.14713
2.14713
2.14712
2.11971
2.11976
2.11989
2.12009
2.12034
2.12065
2.12105
2.12152
2.12207
2.1227
2.12342
2.12425
2.1252
2.12631
2.12762
2.12918
2.13112
2.13354
2.13693
2.14133
2.14903
2.16295
2.19219
2.22902
2.29728
2.48583
2.82973
4.36124
9.66794
16.9638
20.2342
18.7365
12.36
5.51797
3.20513
2.5508
2.20223
2.13306
2.12038
2.11428
2.11162
2.11037
2.10987
2.10972
2.10974
2.10983
2.10994
2.11007
2.11022
2.11034
2.11044
2.11052
2.11058
2.11062
2.11065
2.11067
2.11068
2.11069
2.11069
2.11069
2.08458
2.08464
2.08477
2.08496
2.08521
2.08554
2.08595
2.08643
2.08698
2.08762
2.08835
2.08918
2.09013
2.09124
2.09254
2.09407
2.09597
2.09836
2.10173
2.10603
2.11362
2.12716
2.15743
2.19604
2.25932
2.47429
2.79561
3.83798
7.50445
13.4774
17.6847
18.1482
13.323
6.28753
3.38853
2.64071
2.2033
2.10146
2.08538
2.07913
2.07632
2.07507
2.07456
2.07442
2.07444
2.07455
2.07467
2.07479
2.07492
2.07507
2.07518
2.07527
2.07534
2.07539
2.07543
2.07545
2.07546
2.07547
2.07548
2.07548
2.05059
2.05065
2.05077
2.05096
2.05123
2.05156
2.05197
2.05245
2.05301
2.05365
2.05438
2.05521
2.05616
2.05725
2.05853
2.06002
2.06188
2.06422
2.06752
2.0717
2.07911
2.09235
2.12445
2.16723
2.22555
2.48497
2.81895
3.48042
5.84622
10.5255
15.573
17.0972
13.2688
6.66491
3.49534
2.68602
2.2154
2.07233
2.05185
2.0452
2.04226
2.041
2.04046
2.04032
2.04035
2.04046
2.04059
2.04072
2.04084
2.04096
2.04109
2.04119
2.04127
2.04133
2.04137
2.0414
2.04142
2.04143
2.04143
2.04144
2.01767
2.01773
2.01785
2.01805
2.01832
2.01866
2.01907
2.01955
2.0201
2.02074
2.02147
2.02229
2.02323
2.0243
2.02555
2.02698
2.02881
2.03108
2.03428
2.03834
2.04551
2.05848
2.09319
2.14309
2.19863
2.51721
2.94645
3.25564
4.79988
8.98535
14.5197
15.9678
12.6867
6.71354
3.54154
2.68883
2.23105
2.04546
2.0197
2.01241
2.00937
2.0081
2.00753
2.00738
2.0074
2.0075
2.00764
2.00777
2.0079
2.00801
2.00811
2.00823
2.00831
2.00838
2.00843
2.00846
2.00848
2.00849
2.0085
2.0085
1.98578
1.98584
1.98596
1.98616
1.98643
1.98677
1.98718
1.98766
1.98821
1.98885
1.98957
1.99038
1.9913
1.99235
1.99356
1.99495
1.99673
1.99891
2.00199
2.00593
2.01283
2.02555
2.06336
2.12263
2.17902
2.60264
3.2
3.2299
4.80938
9.28572
13.9821
14.7997
11.8886
6.619
3.54564
2.66286
2.24482
2.02064
1.98886
1.98071
1.97758
1.97628
1.97568
1.97552
1.97553
1.97563
1.97576
1.9759
1.97602
1.97614
1.97623
1.97632
1.97642
1.97649
1.97654
1.97658
1.9766
1.97661
1.97662
1.97663
1.95486
1.95492
1.95505
1.95525
1.95552
1.95586
1.95626
1.95674
1.95729
1.95792
1.95863
1.95943
1.96034
1.96135
1.96251
1.96388
1.96561
1.9677
1.97066
1.97448
1.98112
1.99355
2.03444
2.10333
2.15658
2.85824
3.40911
3.5368
5.61849
10.0917
13.463
13.6503
11.0371
6.44011
3.52569
2.62501
2.25412
1.99774
1.95926
1.95005
1.94683
1.9455
1.94488
1.9447
1.9447
1.94479
1.94491
1.94504
1.94517
1.94528
1.94538
1.94545
1.94553
1.94561
1.94567
1.94571
1.94574
1.94575
1.94576
1.94577
1.92487
1.92494
1.92507
1.92527
1.92553
1.92587
1.92628
1.92675
1.9273
1.92792
1.92862
1.92941
1.93029
1.93126
1.9324
1.93374
1.93541
1.93743
1.94027
1.94398
1.9504
1.96257
2.00614
2.08277
2.14132
3.31844
3.48976
3.96263
6.68895
10.6582
12.7813
12.524
10.2022
6.21721
3.49752
2.5905
2.25817
1.97666
1.93084
1.92038
1.91705
1.91571
1.91506
1.91486
1.91485
1.91493
1.91504
1.91517
1.91529
1.91539
1.91549
1.91557
1.91563
1.91569
1.91576
1.9158
1.91583
1.91585
1.91586
1.91587
1.89578
1.89585
1.89598
1.89617
1.89644
1.89677
1.89718
1.89765
1.89819
1.8988
1.8995
1.90027
1.90113
1.90208
1.9032
1.9045
1.90611
1.90806
1.9108
1.91441
1.92066
1.93276
1.97793
2.05897
2.16194
3.68644
3.58567
4.50387
7.58138
10.7171
11.9166
11.4193
9.41192
5.97846
3.47247
2.5703
2.25693
1.95726
1.90357
1.89165
1.8882
1.88684
1.88617
1.88596
1.88592
1.88599
1.8861
1.88622
1.88633
1.88643
1.88652
1.8866
1.88666
1.88672
1.88676
1.88681
1.88685
1.88686
1.88687
1.88689
1.86753
1.8676
1.86773
1.86793
1.86819
1.86852
1.86892
1.86939
1.86993
1.87054
1.87122
1.87197
1.8728
1.87375
1.87485
1.87611
1.87768
1.87958
1.88223
1.88576
1.89186
1.90396
1.94967
2.03227
2.21399
3.83471
3.71934
4.98005
8.0248
10.3628
10.9731
10.3791
8.68604
5.74312
3.44861
2.56967
2.25058
1.93931
1.87739
1.86381
1.86023
1.85885
1.85816
1.85793
1.85789
1.85795
1.85804
1.85815
1.85826
1.85836
1.85844
1.85851
1.85857
1.85862
1.85866
1.8587
1.85874
1.85876
1.85877
1.85879
1.8401
1.84017
1.8403
1.8405
1.84076
1.84109
1.84148
1.84195
1.84248
1.84308
1.84375
1.84449
1.8453
1.84624
1.84732
1.84856
1.85008
1.85194
1.85453
1.85799
1.86397
1.87601
1.92135
2.00391
2.27111
4.0127
3.86042
5.60288
8.29774
9.76213
9.88453
9.20122
7.66352
5.15918
3.26228
2.58061
2.23877
1.92231
1.85222
1.83683
1.83309
1.8317
1.831
1.83076
1.8307
1.83075
1.83083
1.83093
1.83103
1.83112
1.8312
1.83127
1.83133
1.83138
1.83141
1.83144
1.83147
1.83149
1.83151
1.83154
1.81344
1.81352
1.81365
1.81384
1.8141
1.81443
1.81482
1.81528
1.8158
1.8164
1.81706
1.81777
1.81859
1.81952
1.82058
1.8218
1.82329
1.82512
1.82766
1.83106
1.83693
1.84882
1.89338
1.97934
2.31425
3.89701
3.91068
5.636
8.04666
9.19698
9.19735
8.55166
7.19326
5.00686
3.24396
2.6015
2.12852
1.90693
1.82798
1.81066
1.80675
1.80534
1.80463
1.80438
1.80431
1.80435
1.80443
1.80452
1.80461
1.8047
1.80477
1.80483
1.80489
1.80493
1.80497
1.80499
1.80501
1.80503
1.80505
1.80508
1.78753
1.78761
1.78773
1.78793
1.78818
1.78851
1.7889
1.78935
1.78987
1.79046
1.79111
1.79182
1.79263
1.79355
1.79459
1.7958
1.79727
1.79907
1.80157
1.80493
1.81069
1.82242
1.86594
1.95409
2.70825
3.81603
4.17714
6.1017
7.89808
8.47317
8.23983
7.5275
6.20451
4.35132
3.08907
2.47924
2.10861
1.89144
1.80461
1.78527
1.78116
1.77975
1.77904
1.77878
1.7787
1.77873
1.7788
1.77888
1.77896
1.77904
1.77911
1.77917
1.77922
1.77926
1.77929
1.77931
1.77933
1.77934
1.77936
1.7794
1.76232
1.76241
1.76253
1.76272
1.76298
1.7633
1.76369
1.76414
1.76465
1.76523
1.76586
1.76658
1.76739
1.7683
1.76933
1.77052
1.77198
1.77377
1.77623
1.77955
1.78521
1.79677
1.83916
1.9289
2.67115
3.71246
4.12374
5.97424
7.60125
8.06446
7.80804
7.14471
5.94884
4.26299
3.09543
2.46784
2.08822
1.87584
1.78207
1.76063
1.7563
1.75488
1.75417
1.7539
1.75382
1.75384
1.7539
1.75398
1.75406
1.75413
1.75419
1.75424
1.75428
1.75432
1.75435
1.75437
1.75438
1.75439
1.75441
1.75445
1.7378
1.73789
1.73802
1.73821
1.73846
1.73878
1.73916
1.73961
1.74012
1.74069
1.74132
1.74203
1.74283
1.74373
1.74476
1.74594
1.74739
1.74916
1.7516
1.75488
1.76044
1.77183
1.81299
1.90378
2.62991
3.60901
4.06381
5.81831
7.31716
7.69985
7.42809
6.8086
5.71942
4.17346
3.10294
2.46077
2.06787
1.86026
1.76039
1.73672
1.73215
1.73072
1.73001
1.72974
1.72965
1.72966
1.72971
1.72978
1.72985
1.72992
1.72997
1.73002
1.73006
1.73009
1.73012
1.73013
1.73014
1.73015
1.73016
1.73021
1.71394
1.71403
1.71416
1.71434
1.71459
1.71491
1.71529
1.71573
1.71623
1.71679
1.71742
1.71814
1.71894
1.71983
1.72085
1.72203
1.72346
1.72522
1.72763
1.73087
1.73633
1.74753
1.78739
1.87887
2.58552
3.50673
3.99867
5.65583
7.04008
7.36733
7.09073
6.51118
5.51265
4.08759
3.11119
2.45829
2.04813
1.84481
1.73959
1.71353
1.70868
1.70723
1.70652
1.70624
1.70615
1.70616
1.7062
1.70627
1.70633
1.70639
1.70644
1.70648
1.70651
1.70654
1.70656
1.70657
1.70658
1.70659
1.70659
1.70664
1.6907
1.6908
1.69092
1.69111
1.69135
1.69167
1.69204
1.69248
1.69298
1.69353
1.69416
1.69487
1.69567
1.69656
1.69757
1.69874
1.70017
1.70192
1.7043
1.7075
1.71285
1.72384
1.76239
1.85416
2.53863
3.40648
3.92909
5.49094
6.77362
7.063
6.78804
6.24398
5.32601
4.0102
3.11884
2.46012
2.02952
1.82959
1.71973
1.69107
1.68586
1.68439
1.68368
1.6834
1.6833
1.68331
1.68335
1.6834
1.68346
1.68351
1.68355
1.68359
1.68361
1.68364
1.68365
1.68366
1.68367
1.68367
1.68367
1.68372
1.66807
1.66817
1.66829
1.66847
1.66872
1.66903
1.6694