/*--------------------------------*- C++ -*----------------------------------*\
  =========                 |
  \\      /  F ield         | OpenFOAM: The Open Source CFD Toolbox
   \\    /   O peration     | Website:  https://openfoam.org
    \\  /    A nd           | Version:  12
     \\/     M anipulation  |
\*---------------------------------------------------------------------------*/
FoamFile
{
    format      ascii;
    class       volScalarField;
    location    "260";
    object      p;
}
// * * * * * * * * * * * * * * * * * * * * * * * * * * * * * * * * * * * * * //

dimensions      [0 2 -2 0 0 0 0];

internalField   nonuniform List<scalar> 
16227
(
0.0942322
0.094295
0.0944197
0.0946047
0.0948475
0.095145
0.0954933
0.0958874
0.0963216
0.0967891
0.0972824
0.097793
0.0983112
0.0988274
0.0993304
0.0998088
0.10025
0.100643
0.100973
0.101229
0.101399
0.101469
0.101431
0.101274
0.10099
0.100572
0.100018
0.0993233
0.0984895
0.097519
0.0964168
0.0951902
0.0938488
0.0924038
0.0908681
0.0892561
0.0875827
0.0858639
0.0841153
0.0823528
0.0805916
0.0788464
0.0771308
0.0754575
0.073838
0.0722828
0.0708009
0.0694004
0.0680882
0.06687
0.0657509
0.0647349
0.0638252
0.0630246
0.062335
0.0617583
0.0612958
0.0609483
0.0607163
0.0606002
0.0941851
0.0942485
0.0943743
0.094561
0.0948061
0.0951066
0.0954585
0.0958568
0.0962958
0.0967688
0.0972683
0.0977858
0.0983116
0.0988358
0.0993473
0.0998346
0.100285
0.100687
0.101027
0.101292
0.10147
0.101549
0.101518
0.101366
0.101087
0.100673
0.10012
0.0994255
0.09859
0.0976159
0.0965084
0.095275
0.0939253
0.0924708
0.0909247
0.0893016
0.0876168
0.0858863
0.0841262
0.0823525
0.0805806
0.0788253
0.0771004
0.0754186
0.0737916
0.0722296
0.0707419
0.0693363
0.0680197
0.066798
0.0656759
0.0646574
0.0637457
0.0629435
0.0622528
0.0616752
0.061212
0.0608641
0.0606318
0.0605156
0.0940805
0.0941452
0.0942736
0.0944641
0.0947145
0.0950215
0.0953813
0.095789
0.0962388
0.096724
0.0972371
0.0977699
0.0983124
0.0988544
0.0993848
0.0998919
0.100363
0.100785
0.101146
0.101432
0.101629
0.101725
0.10171
0.101572
0.101303
0.100897
0.100347
0.0996527
0.0988131
0.0978309
0.0967115
0.0954629
0.0940948
0.0926193
0.0910502
0.0894025
0.0876922
0.0859359
0.0841502
0.0823516
0.080556
0.0787784
0.077033
0.0753325
0.0736887
0.0721119
0.0706111
0.0691944
0.0678683
0.0666386
0.0655099
0.0644859
0.06357
0.0627643
0.062071
0.0614914
0.0610268
0.0606778
0.060445
0.0603285
0.0939035
0.0939703
0.094103
0.0943001
0.0945591
0.0948771
0.0952501
0.0956735
0.0961414
0.0966472
0.0971833
0.0977417
0.0983122
0.0988842
0.0994465
0.0999869
0.100493
0.10095
0.101346
0.101666
0.101896
0.102022
0.102034
0.101919
0.101669
0.101275
0.100732
0.100037
0.0991907
0.0981949
0.0970556
0.095781
0.0943818
0.0928707
0.0912623
0.0895728
0.0878193
0.0860193
0.0841903
0.0823497
0.080514
0.0786989
0.0769188
0.0751869
0.0735148
0.0719131
0.0703907
0.0689553
0.0676135
0.0663706
0.0652309
0.064198
0.0632747
0.0624635
0.0617659
0.0611831
0.0607161
0.0603655
0.0601317
0.0600147
0.0936588
0.0937287
0.0938673
0.0940733
0.0943443
0.0946774
0.0950688
0.0955138
0.0960069
0.0965413
0.0971094
0.0977033
0.0983129
0.0989269
0.0995337
0.100121
0.100675
0.101182
0.101627
0.101995
0.102271
0.102441
0.102491
0.102409
0.102184
0.101808
0.101274
0.100579
0.0997228
0.0987076
0.0975395
0.0962279
0.094784
0.0932218
0.0915575
0.0898086
0.0879935
0.0861315
0.0842412
0.0823413
0.0804493
0.0785816
0.0767531
0.0749773
0.0732662
0.0716301
0.0700779
0.068617
0.0672536
0.0659927
0.0648382
0.0637934
0.0628605
0.0620419
0.0613387
0.0607517
0.0602817
0.0599289
0.0596938
0.0595763
0.0933498
0.0934234
0.0935695
0.0937866
0.0940726
0.0944247
0.0948391
0.0953113
0.095836
0.0964066
0.0970151
0.0976538
0.0983132
0.0989808
0.0996446
0.100292
0.100908
0.101479
0.101988
0.102419
0.102755
0.102981
0.103081
0.103041
0.10285
0.102497
0.101975
0.101279
0.10041
0.0993694
0.0981635
0.0968029
0.0953003
0.0936711
0.0919332
0.0901063
0.088211
0.0862681
0.0842983
0.0823218
0.0803572
0.078422
0.0765317
0.0747004
0.0729399
0.0712607
0.0696713
0.0681788
0.066789
0.0655061
0.0643336
0.0632742
0.0623303
0.061503
0.0607933
0.0602014
0.0597279
0.0593728
0.0591363
0.0590181
0.0929704
0.0930484
0.0932033
0.0934337
0.0937376
0.0941123
0.0945542
0.0950591
0.0956217
0.0962359
0.0968936
0.0975864
0.0983059
0.0990393
0.0997733
0.100494
0.101188
0.101838
0.102426
0.102936
0.103347
0.103644
0.103808
0.103822
0.103674
0.103351
0.102845
0.10215
0.101265
0.100192
0.0989386
0.0975163
0.0959395
0.0942256
0.0923952
0.0904703
0.0884741
0.08643
0.0843612
0.0822896
0.0802354
0.0782173
0.0762516
0.0743528
0.0725329
0.070802
0.0691684
0.0676386
0.0662177
0.0649093
0.0637164
0.0626406
0.0616841
0.0608474
0.0601304
0.0595334
0.0590562
0.0586986
0.0584606
0.0583418
0.0925128
0.0925959
0.0927608
0.0930064
0.0933309
0.0937317
0.0942057
0.0947485
0.0953554
0.0960205
0.0967362
0.0974931
0.0982833
0.0990953
0.0999134
0.100724
0.10151
0.102256
0.102943
0.103549
0.104054
0.104438
0.104681
0.104764
0.104671
0.104387
0.103901
0.103208
0.102304
0.101193
0.099881
0.0983828
0.0967143
0.094896
0.0929512
0.0909056
0.0887856
0.0866179
0.0844284
0.0822415
0.0800795
0.0779622
0.075907
0.0739285
0.0720389
0.0702481
0.0685637
0.0669914
0.0655354
0.0641985
0.0629825
0.0618895
0.0609198
0.060073
0.0593486
0.0587463
0.0582655
0.0579056
0.0576662
0.0575468
0.0919715
0.0920603
0.0922365
0.0924992
0.0928467
0.093277
0.093787
0.0943731
0.0950304
0.0957536
0.0965359
0.0973677
0.0982397
0.0991427
0.10006
0.100976
0.101873
0.102735
0.103538
0.104261
0.10488
0.105372
0.105713
0.105881
0.105856
0.105622
0.105163
0.104474
0.103549
0.102391
0.101009
0.099418
0.0976377
0.0956919
0.0936077
0.0914153
0.0891454
0.0868286
0.0844945
0.0821703
0.0798806
0.077647
0.0754874
0.0734171
0.071448
0.0695894
0.067848
0.0662287
0.0647344
0.063367
0.0621271
0.0610162
0.060033
0.0591764
0.0584451
0.057838
0.057354
0.0569921
0.0567516
0.0566317
0.0913424
0.0914373
0.0916258
0.0919072
0.0922801
0.0927427
0.0932927
0.0939266
0.0946404
0.0954288
0.0962857
0.0972026
0.0981688
0.099176
0.100207
0.101246
0.102274
0.103271
0.104213
0.105077
0.105833
0.106456
0.106917
0.107189
0.10725
0.107077
0.106655
0.105971
0.105022
0.103809
0.102343
0.10064
0.0987241
0.0966236
0.0943709
0.0920013
0.0895513
0.0870565
0.0845508
0.0820651
0.0796264
0.0772582
0.0749795
0.0728052
0.0707471
0.0688137
0.0670106
0.065341
0.0638062
0.0624068
0.0611435
0.0600152
0.0590195
0.058154
0.0574167
0.0568059
0.0563197
0.0559565
0.0557154
0.0555954
0.09062
0.0907214
0.090923
0.0912244
0.0916245
0.092122
0.0927152
0.0934013
0.0941768
0.0950371
0.0959767
0.0969883
0.0980607
0.0991853
0.100348
0.101527
0.102706
0.103862
0.104969
0.105999
0.10692
0.107701
0.108307
0.108708
0.108875
0.10878
0.108404
0.107731
0.106755
0.105477
0.103909
0.102071
0.0999918
0.0977043
0.0952483
0.0926659
0.0900007
0.0872946
0.0845869
0.0819128
0.0793023
0.0767805
0.0743672
0.0720775
0.0699219
0.0679077
0.0660389
0.0643171
0.0627415
0.0613109
0.0600254
0.0588813
0.0578746
0.0570022
0.0562609
0.055648
0.0551611
0.0547978
0.0545569
0.054437
0.0897973
0.0899055
0.0901208
0.0904431
0.0908718
0.0914062
0.0920451
0.0927869
0.0936289
0.0945674
0.0955974
0.0967128
0.0979036
0.0991591
0.100469
0.10181
0.103163
0.104504
0.105802
0.107029
0.108148
0.109118
0.109901
0.11046
0.110758
0.110762
0.110445
0.109789
0.108784
0.10743
0.105741
0.103741
0.101463
0.0989499
0.0962489
0.0934115
0.0904899
0.087534
0.0845898
0.0816975
0.0788905
0.0761954
0.0736325
0.0712163
0.068956
0.0668567
0.06492
0.0631457
0.0615301
0.0600711
0.0587662
0.0576092
0.0565947
0.0557184
0.0549758
0.0543633
0.0538775
0.0535156
0.053276
0.0531568
0.0888667
0.0889818
0.0892111
0.0895547
0.0900128
0.0905852
0.0912719
0.092072
0.0929842
0.094006
0.0951334
0.0963617
0.0976823
0.0990838
0.100557
0.102081
0.103633
0.105187
0.10671
0.108167
0.10952
0.110718
0.111717
0.112469
0.11293
0.113059
0.11282
0.11219
0.111154
0.109712
0.107878
0.105682
0.103166
0.100379
0.0973829
0.0942395
0.0910124
0.0877619
0.0845419
0.0813983
0.0783682
0.0754797
0.0727529
0.0702006
0.0678301
0.0656435
0.0636392
0.0618137
0.0601622
0.0586793
0.0573593
0.0561939
0.0551762
0.0543
0.05356
0.052951
0.052469
0.0521106
0.0518735
0.0517557
0.0878205
0.0879425
0.0881856
0.0885505
0.089038
0.0896489
0.090384
0.0912441
0.092229
0.093338
0.0945686
0.0959177
0.097379
0.0989414
0.100595
0.102323
0.104101
0.105899
0.107684
0.109414
0.111043
0.112516
0.113776
0.114767
0.115431
0.115717
0.115581
0.114989
0.113923
0.112377
0.11037
0.107938
0.105131
0.102014
0.0986605
0.095149
0.091558
0.08796
0.0844192
0.080988
0.0777068
0.0746048
0.0717008
0.0690051
0.0665211
0.0642478
0.0621794
0.0603083
0.0586271
0.0571265
0.055798
0.0546306
0.0536157
0.0527452
0.0520124
0.0514111
0.0509362
0.0505837
0.0503508
0.0502352
0.0866516
0.0867801
0.0870365
0.0874219
0.087938
0.0885866
0.0893698
0.0902899
0.0913485
0.0925469
0.0938849
0.0953612
0.0969723
0.0987093
0.100562
0.102517
0.104547
0.106625
0.108713
0.110762
0.112722
0.114524
0.116103
0.117386
0.118304
0.118791
0.118789
0.118254
0.117158
0.115494
0.11328
0.110561
0.1074
0.103879
0.100092
0.0961359
0.0921097
0.0881022
0.0841891
0.0804303
0.0768694
0.0735349
0.070443
0.0675996
0.0650029
0.0626471
0.060521
0.0586138
0.0569123
0.0554033
0.0540753
0.0529144
0.0519101
0.0510523
0.0503327
0.049744
0.0492802
0.0489366
0.0487099
0.0485975
0.085353
0.0854875
0.0857561
0.0861605
0.0867034
0.0873877
0.0882169
0.0891952
0.0903266
0.0916146
0.0930618
0.0946696
0.0964377
0.0983609
0.10043
0.102634
0.104948
0.107343
0.109779
0.112202
0.114552
0.116754
0.118721
0.120366
0.121601
0.122344
0.12252
0.122067
0.120947
0.119145
0.116683
0.113615
0.11002
0.106004
0.101685
0.0971904
0.0926425
0.0881516
0.0838078
0.0796785
0.0758091
0.0722257
0.0689392
0.0659488
0.0632453
0.0608154
0.0586444
0.0567139
0.055005
0.0535003
0.0521845
0.0510412
0.050057
0.0492204
0.0485212
0.047951
0.047503
0.0471718
0.0469537
0.0468455
0.0839185
0.0840581
0.0843372
0.0847583
0.0853248
0.0860412
0.0869126
0.0879455
0.0891461
0.0905212
0.0920766
0.0938173
0.0957468
0.0978648
0.100165
0.102641
0.105269
0.108021
0.110856
0.113715
0.116529
0.119213
0.121654
0.123747
0.125383
0.126455
0.126864
0.126531
0.125397
0.123439
0.120677
0.11718
0.113049
0.10842
0.103447
0.0982946
0.0931186
0.0880566
0.0832161
0.0786715
0.0744671
0.070623
0.067141
0.0640112
0.0612141
0.0587272
0.0565288
0.0545923
0.0528926
0.0514087
0.0501202
0.0490076
0.0480554
0.0472499
0.0465795
0.0460347
0.0456078
0.045293
0.0450859
0.0449833
0.0823425
0.0824861
0.0827734
0.0832076
0.0837933
0.0845365
0.0854443
0.0865252
0.0877888
0.0892451
0.0909039
0.0927749
0.0948666
0.0971842
0.0997278
0.102495
0.105467
0.108619
0.11191
0.115277
0.11864
0.121901
0.124926
0.127578
0.129718
0.131213
0.131935
0.131774
0.130646
0.12851
0.125387
0.121359
0.11656
0.111165
0.10538
0.0994176
0.0934813
0.0877443
0.0823341
0.0773298
0.0727699
0.0686619
0.0649929
0.0617399
0.0588703
0.0563523
0.0541514
0.0522324
0.0505643
0.0491214
0.0478782
0.0468122
0.0459055
0.0451426
0.0445106
0.0439988
0.0435991
0.0433051
0.043112
0.0430164
0.0806207
0.0807667
0.0810591
0.081502
0.082101
0.0828638
0.0837994
0.0849191
0.0862357
0.0877631
0.0895162
0.0915099
0.0937589
0.0962759
0.0990683
0.102142
0.105486
0.10908
0.112888
0.116845
0.120861
0.124821
0.128563
0.131909
0.134684
0.136725
0.137866
0.137954
0.136866
0.134533
0.130971
0.126282
0.120642
0.114284
0.10748
0.100512
0.0936474
0.0871117
0.0810543
0.0755517
0.0706262
0.0662642
0.0624304
0.0590823
0.0561757
0.0536609
0.05149
0.0496188
0.0480105
0.0466331
0.0454565
0.0444555
0.04361
0.0429026
0.0423194
0.0418493
0.0414832
0.0412146
0.0410386
0.0409516
0.0787502
0.0788966
0.0791903
0.0796362
0.080241
0.0810138
0.0819663
0.0831121
0.0844677
0.0860516
0.087884
0.0899862
0.0923807
0.0950893
0.0981291
0.101517
0.105256
0.109332
0.113718
0.118355
0.123144
0.127951
0.132583
0.136797
0.140373
0.14312
0.144827
0.145277
0.144285
0.141739
0.13764
0.132117
0.125405
0.117818
0.109721
0.101491
0.0934889
0.0860117
0.0792319
0.0732059
0.0679233
0.0633373
0.0593812
0.0559869
0.053091
0.0506242
0.0485247
0.0467393
0.0452247
0.0439416
0.0428563
0.041941
0.0411737
0.040536
0.0400132
0.0395936
0.0392681
0.0390299
0.0388742
0.0387973
0.0767297
0.0768743
0.0771648
0.0776067
0.0782079
0.0789793
0.0799345
0.0810903
0.0824665
0.0840866
0.0859767
0.0881657
0.0906847
0.0935668
0.0968414
0.10054
0.104684
0.109275
0.1143
0.119714
0.125416
0.131252
0.136993
0.142295
0.14685
0.150511
0.15299
0.153973
0.153179
0.150421
0.145669
0.139091
0.131003
0.121839
0.112092
0.102262
0.0928173
0.084235
0.0766735
0.0701279
0.0645265
0.0597742
0.0557637
0.0523956
0.0495757
0.0472153
0.0452397
0.0435867
0.0422048
0.041049
0.0400823
0.0392755
0.038605
0.038052
0.0376014
0.0372416
0.0369637
0.036761
0.0366287
0.0365635
0.0745605
0.0747006
0.0749826
0.0754124
0.0759991
0.0767551
0.077696
0.0788416
0.0802152
0.0818451
0.0837638
0.0860084
0.0886199
0.0916445
0.0951271
0.0991166
0.103662
0.108785
0.1145
0.120785
0.12756
0.134661
0.141808
0.148521
0.154306
0.159152
0.162679
0.164438
0.163987
0.16101
0.155431
0.147466
0.137559
0.126317
0.114419
0.102521
0.0913032
0.0814718
0.0731198
0.0661132
0.0602834
0.0554642
0.051502
0.0482543
0.0455943
0.043414
0.0416258
0.0401594
0.0389546
0.0379624
0.0371443
0.03647
0.0359156
0.0354625
0.0350961
0.0348054
0.034582
0.0344196
0.0343139
0.0342619
0.0722463
0.0723789
0.0726463
0.0730549
0.0736146
0.074339
0.0752458
0.0763571
0.0776997
0.0793064
0.0812164
0.0834749
0.086134
0.089254
0.0928991
0.0971391
0.102054
0.107703
0.114135
0.121374
0.129388
0.138035
0.146999
0.155582
0.162536
0.168954
0.173938
0.176884
0.177068
0.173957
0.167387
0.157648
0.145382
0.131452
0.116798
0.102314
0.0884731
0.0772988
0.0682409
0.0609225
0.0550269
0.0502968
0.0465228
0.0435161
0.041121
0.0392103
0.0376846
0.036465
0.0354857
0.0346962
0.0340577
0.0335404
0.0331214
0.0327831
0.0325125
0.0322995
0.032137
0.0320194
0.0319431
0.0319057
0.069794
0.0699158
0.0701619
0.0705391
0.0710578
0.0717327
0.0725826
0.0736318
0.0749102
0.0764544
0.0783093
0.0805286
0.0831753
0.0863248
0.0900623
0.0944829
0.0997007
0.105827
0.112965
0.121205
0.130603
0.141134
0.152482
0.163877
0.168268
0.176396
0.183115
0.187898
0.189626
0.187386
0.180744
0.169934
0.155735
0.139266
0.121744
0.104391
0.0833368
0.0710963
0.0616412
0.0542962
0.0485843
0.0441637
0.0407625
0.0381502
0.0361465
0.0346096
0.0334301
0.0325222
0.0318194
0.0312725
0.0308445
0.0305081
0.0302425
0.030033
0.0298684
0.0297409
0.0296447
0.0295758
0.0295314
0.0295097
0.0672134
0.067321
0.0675389
0.0678739
0.0683367
0.0689423
0.0697105
0.0706666
0.0718427
0.0732787
0.0750238
0.0771391
0.0796976
0.0827892
0.0865206
0.0910153
0.0964235
0.102919
0.110682
0.119895
0.13074
0.143454
0.158201
0.165988
0.180955
0.191496
0.200629
0.207712
0.21091
0.208585
0.199939
0.185385
0.166252
0.144328
0.121431
0.099289
0.0815662
0.0619564
0.0528893
0.0459949
0.040816
0.0369853
0.034186
0.0321522
0.0306864
0.029639
0.0288932
0.0283639
0.0279887
0.0277229
0.0275343
0.0274
0.0273038
0.0272346
0.0271846
0.0271486
0.0271231
0.0271057
0.0270949
0.0270898
0.0645181
0.064608
0.0647904
0.0650721
0.0654634
0.0659793
0.0666392
0.067469
0.0685013
0.0697779
0.0713507
0.0732859
0.0756647
0.0785891
0.0821852
0.0866055
0.0920383
0.0987161
0.106918
0.116942
0.129114
0.143918
0.162532
0.174096
0.191763
0.203488
0.215085
0.225908
0.232451
0.231817
0.222396
0.204605
0.180491
0.152801
0.124052
0.0904585
0.0710928
0.049995
0.0418701
0.0358884
0.0316387
0.0287329
0.0268032
0.0255564
0.0247893
0.02435
0.0241256
0.0240398
0.0240394
0.0240888
0.024164
0.0242491
0.0243345
0.024414
0.0244843
0.0245437
0.0245914
0.0246271
0.0246509
0.0246627
0.0617254
0.061794
0.0619339
0.0621512
0.0624556
0.062861
0.0633859
0.0640548
0.0648999
0.0659621
0.0672942
0.0689641
0.0710576
0.0736844
0.0769853
0.0811369
0.0863636
0.0929498
0.101265
0.111743
0.124856
0.14124
0.162821
0.17853
0.20201
0.222544
0.239565
0.256293
0.267465
0.267986
0.254802
0.228704
0.19376
0.155101
0.11716
0.0772911
0.0580345
0.0353043
0.0285569
0.0239322
0.0210515
0.0194525
0.0186861
0.0184484
0.0185421
0.0188252
0.0192031
0.0196176
0.0200311
0.0204219
0.0207781
0.0210939
0.0213676
0.0215999
0.0217928
0.0219487
0.02207
0.0221589
0.0222171
0.0222459
0.0588558
0.0589001
0.0589908
0.0591335
0.0593362
0.0596113
0.0599749
0.0604492
0.0610633
0.0618554
0.0628754
0.0641889
0.0658812
0.0680636
0.0708825
0.074529
0.0792528
0.0853769
0.0933397
0.103704
0.117092
0.134312
0.157944
0.178125
0.207221
0.235673
0.262882
0.290784
0.311984
0.317128
0.29968
0.261103
0.209896
0.156293
0.10766
0.0607832
0.0400421
0.0173344
0.012681
0.0100797
0.0091337
0.00927669
0.00998399
0.0109749
0.0120775
0.0131822
0.0142278
0.015184
0.0160364
0.0167832
0.0174278
0.017977
0.0184393
0.0188232
0.0191367
0.0193868
0.0195797
0.0197201
0.0198116
0.0198567
0.0559337
0.0559507
0.0559866
0.0560454
0.0561335
0.0562604
0.056439
0.0566873
0.0570293
0.0574976
0.0581352
0.0590007
0.0601721
0.0617537
0.0638866
0.0667602
0.0706313
0.0758402
0.0828636
0.0923577
0.105081
0.122057
0.14633
0.170816
0.205335
0.243055
0.284109
0.330721
0.371551
0.388323
0.365114
0.304459
0.225916
0.150571
0.0893973
0.0360363
0.0155311
-0.00487703
-0.00611026
-0.00562874
-0.00391283
-0.00154831
0.000936429
0.00334802
0.00557809
0.00757473
0.00932679
0.0108428
0.0121402
0.0132415
0.014169
0.0149445
0.0155876
0.0161155
0.0165427
0.0168812
0.0171408
0.0173291
0.0174516
0.0175118
0.0529861
0.0529738
0.0529503
0.0529181
0.0528811
0.0528452
0.052819
0.0528146
0.0528487
0.0529453
0.0531368
0.0534689
0.0540046
0.0548314
0.0560708
0.0578916
0.0605319
0.0643154
0.0697146
0.0774209
0.088255
0.103433
0.126102
0.153839
0.191889
0.238878
0.297209
0.3725
0.451826
0.497866
0.466139
0.360667
0.233557
0.127606
0.0540314
-0.00187134
-0.0177148
-0.0319218
-0.0277594
-0.0228377
-0.017666
-0.0126238
-0.00811204
-0.00414306
-0.000720626
0.00219107
0.00464894
0.00671175
0.00843522
0.00987011
0.0110602
0.0120432
0.0128503
0.0135079
0.0140368
0.014454
0.0147729
0.0150036
0.0151534
0.0152268
0.0500428
0.0499997
0.0499139
0.049786
0.0496167
0.0494081
0.0491629
0.048886
0.0485852
0.0482725
0.047966
0.047693
0.0474941
0.0474286
0.0475837
0.0480857
0.0491227
0.0509584
0.0539962
0.0588795
0.0663612
0.07772
0.0956086
0.124261
0.161537
0.214544
0.288245
0.400354
0.553584
0.680124
0.634585
0.423772
0.208667
0.0668842
-0.0102829
-0.0574277
-0.0610489
-0.0631594
-0.051338
-0.0406615
-0.031389
-0.0233569
-0.0166898
-0.0111305
-0.00653645
-0.0027535
0.000358254
0.00291591
0.00501714
0.00674282
0.00815862
0.00931779
0.0102632
0.0110292
0.0116427
0.0121253
0.0124932
0.0127589
0.0129312
0.0130156
0.0471349
0.0470606
0.0469115
0.0466861
0.0463818
0.0459959
0.0455247
0.0449649
0.0443134
0.0435683
0.0427298
0.0418024
0.0407967
0.0397344
0.0386534
0.0376157
0.0367276
0.0361431
0.0361191
0.0371339
0.0396967
0.0449813
0.0542922
0.0799694
0.109102
0.159489
0.232612
0.366484
0.632188
1.00941
0.936011
0.435006
0.0840383
-0.0665763
-0.115876
-0.132114
-0.113022
-0.0959995
-0.0747789
-0.057574
-0.0439713
-0.0329352
-0.0242051
-0.0171853
-0.0115578
-0.00703155
-0.00337844
-0.000421839
0.0019772
0.00392811
0.00551614
0.0068084
0.00785743
0.0087042
0.00938077
0.00991178
0.0103162
0.0106079
0.0107969
0.0108894
0.0442944
0.0441895
0.0439783
0.043657
0.0432196
0.0426583
0.0419627
0.0411204
0.0401165
0.0389338
0.0375524
0.0359504
0.0341041
0.031989
0.0295828
0.0268648
0.0238311
0.0204826
0.0168529
0.0131381
0.00938876
0.00652169
0.00362479
0.0216375
0.0338787
0.0673987
0.10946
0.178004
0.35885
1.44351
1.41696
0.0363145
-0.287678
-0.307817
-0.26463
-0.218346
-0.167064
-0.125574
-0.0948766
-0.0714452
-0.0539851
-0.0403928
-0.0300019
-0.0218585
-0.0154744
-0.0104267
-0.00640891
-0.00319335
-0.000606755
0.00148256
0.00317459
0.00454637
0.00565693
0.00655182
0.00726599
0.00782616
0.00825263
0.00856021
0.00875949
0.00885696
0.0415527
0.0414189
0.041149
0.0407371
0.0401737
0.0394458
0.0385364
0.037424
0.0360818
0.0344768
0.0325683
0.030307
0.0276325
0.024471
0.0207329
0.0163055
0.0110579
0.00481094
-0.00267849
-0.0115758
-0.0224893
-0.0348455
-0.0525595
-0.0467946
-0.0584238
-0.0525611
-0.0543778
-0.0938361
-0.572027
-1.79483
-0.982672
-0.623467
-0.424239
-0.295093
-0.211111
-0.145343
-0.107713
-0.0798617
-0.059921
-0.0447697
-0.0334638
-0.0247495
-0.0180233
-0.0127643
-0.00861617
-0.00531921
-0.00268012
-0.000555747
0.00116102
0.00255125
0.00367638
0.00458323
0.0053074
0.0058759
0.00630907
0.00662176
0.00682441
0.00692356
0.0389396
0.0387797
0.038457
0.0379632
0.0372858
0.0364073
0.0353041
0.0339465
0.0322962
0.0303056
0.0279142
0.0250466
0.0216073
0.0174746
0.0124942
0.00646152
-0.000880941
-0.00988995
-0.0211006
-0.0350359
-0.0531061
-0.0750072
-0.108157
-0.11813
-0.158274
-0.188355
-0.225943
-0.198757
0.508924
1.22989
-3.52903
-1.49484
-0.844928
-0.527423
-0.333642
-0.230824
-0.149114
-0.109783
-0.0807785
-0.0605703
-0.0453396
-0.0341515
-0.0255911
-0.019041
-0.0139444
-0.00993896
-0.00676165
-0.00421971
-0.0021724
-0.000515548
0.000828995
0.00191987
0.00280149
0.00350752
0.00406323
0.00448765
0.00479454
0.00499369
0.00509115
0.0364821
0.0363001
0.0359323
0.0353689
0.0345945
0.0335876
0.0323194
0.0307529
0.0288404
0.0265213
0.0237187
0.0203344
0.0162435
0.0112841
0.00524653
-0.00215126
-0.0112741
-0.0226187
-0.0369819
-0.0551343
-0.0793218
-0.109173
-0.155571
-0.182192
-0.251218
-0.329179
-0.456139
-0.721412
-0.670561
-1.01498
-3.37781
-2.59812
-1.42775
-0.838659
-0.522768
-0.315797
-0.217445
-0.133865
-0.0994587
-0.073314
-0.0554664
-0.0418635
-0.0319535
-0.0243401
-0.0185198
-0.0139764
-0.0103939
-0.00753924
-0.00524318
-0.00338313
-0.00186845
-0.00063138
0.000378596
0.00119986
0.0018612
0.00238428
0.00278541
0.00307639
0.00326556
0.00335822
0.0342036
0.0340041
0.0336009
0.0329828
0.0321325
0.0310253
0.0296284
0.0278995
0.0257836
0.0232109
0.0200918
0.0163125
0.0117263
0.0061428
-0.000684533
-0.00908944
-0.019511
-0.0325161
-0.0490934
-0.0700343
-0.0983226
-0.132866
-0.187315
-0.226845
-0.313582
-0.431213
-0.644695
-1.27332
-2.58531
-2.20354
-2.79209
-1.82083
-1.02107
-0.643444
-0.418111
-0.246464
-0.172862
-0.101556
-0.0779521
-0.0582475
-0.0451466
-0.0347311
-0.0271613
-0.0212178
-0.0166291
-0.0129904
-0.0100811
-0.00772917
-0.00581036
-0.00423424
-0.0029334
-0.00185743
-0.000968585
-0.000238074
0.000355703
0.000829114
0.00119458
0.00146097
0.00163473
0.00171991
0.0321223
0.0319107
0.0314832
0.0308277
0.0299255
0.0287503
0.0272668
0.0254296
0.0231792
0.0204406
0.0171176
0.0130872
0.0081925
0.00222882
-0.00506591
-0.0140433
-0.0251763
-0.039012
-0.0566462
-0.0786008
-0.108421
-0.143474
-0.19919
-0.243471
-0.326698
-0.446142
-0.628839
-1.05075
-1.963
-1.12227
-0.591897
-0.613825
-0.489838
-0.368574
-0.260148
-0.148171
-0.108356
-0.0584958
-0.0490369
-0.037903
-0.0311056
-0.0249354
-0.0204531
-0.0166965
-0.0137033
-0.0112273
-0.00917607
-0.00746124
-0.00601784
-0.00479801
-0.00376486
-0.00289035
-0.00215309
-0.00153638
-0.00102752
-0.000616737
-0.00029643
-6.12145e-05
9.29393e-05
0.000168608
0.0302512
0.0300334
0.0295935
0.0289191
0.0279912
0.0267828
0.0252583
0.023371
0.0210609
0.0182517
0.0148464
0.010721
0.00571891
-0.000363081
-0.0077824
-0.016871
-0.0281019
-0.0419151
-0.0594433
-0.0806907
-0.109604
-0.141509
-0.192701
-0.233689
-0.298214
-0.387134
-0.461938
-0.551275
-0.520029
0.0228041
0.312769
0.0443176
-0.104184
-0.125955
-0.101547
-0.0460608
-0.0383699
-0.0126406
-0.0176793
-0.0154576
-0.0154222
-0.013866
-0.0127727
-0.0114278
-0.0101982
-0.00901066
-0.00791225
-0.00690511
-0.00599017
-0.00516667
-0.0044317
-0.00378195
-0.00321415
-0.00272496
-0.00231155
-0.00197133
-0.00170208
-0.00150221
-0.00137031
-0.00130543
0.0285972
0.0283793
0.027939
0.0272648
0.0263377
0.025132
0.0236128
0.0217351
0.019441
0.0166577
0.0132926
0.00922845
0.00431889
-0.00162375
-0.00883662
-0.0176034
-0.0283712
-0.0414131
-0.0578619
-0.0770872
-0.103323
-0.130036
-0.17353
-0.207389
-0.249618
-0.30143
-0.295722
-0.248359
-0.0583508
0.326586
0.504722
0.268399
0.111066
0.0534233
0.0259509
0.042514
0.0257975
0.0291395
0.0115397
0.00593822
-0.000252612
-0.00300796
-0.00514738
-0.00613049
-0.0066216
-0.00670353
-0.00655125
-0.00625116
-0.00586711
-0.00544368
-0.00501102
-0.00459016
-0.00419563
-0.00383738
-0.0035223
-0.00325508
-0.0030388
-0.00287567
-0.00276696
-0.00271334
0.0271612
0.0269488
0.0265203
0.0258647
0.0249645
0.023796
0.022327
0.0205163
0.0183112
0.0156456
0.0124365
0.00857923
0.00394668
-0.00162525
-0.00834186
-0.0164195
-0.0262571
-0.0379418
-0.0526322
-0.0690632
-0.0916912
-0.112737
-0.147845
-0.174327
-0.198539
-0.223898
-0.186194
-0.119858
0.0216913
0.257518
0.460823
0.34678
0.226433
0.158984
0.117352
0.109673
0.0768303
0.0623855
0.0353197
0.0237781
0.0125941
0.00633028
0.00149185
-0.00147291
-0.00345669
-0.0046573
-0.00534981
-0.00568801
-0.00578807
-0.00573283
-0.00558073
-0.00537378
-0.00514227
-0.00490796
-0.00468644
-0.00448899
-0.00432355
-0.00419586
-0.00410952
-0.00406678
0.0259378
0.0257365
0.0253307
0.0247109
0.0238617
0.0227624
0.0213848
0.0196935
0.0176431
0.0151776
0.0122275
0.00870436
0.00450467
-0.000503986
-0.0064835
-0.0135774
-0.0221455
-0.0320819
-0.0446036
-0.0579238
-0.076628
-0.0924163
-0.119824
-0.140611
-0.153063
-0.165057
-0.123566
-0.0701477
0.00187928
0.112142
0.295107
0.330848
0.280057
0.215244
0.177203
0.15452
0.111675
0.0844445
0.0517051
0.036397
0.0218409
0.0131707
0.00641992
0.0020061
-0.00110334
-0.00316958
-0.0045293
-0.00538097
-0.00587705
-0.00612764
-0.00621166
-0.00618686
-0.00609558
-0.00596879
-0.00582907
-0.00569308
-0.00557269
-0.00547647
-0.00541009
-0.00537709
0.0249163
0.0247307
0.0243574
0.0237886
0.0230114
0.022009
0.0207584
0.0192311
0.0173911
0.0151943
0.0125868
0.00950048
0.00585837
0.0015688
-0.00349483
-0.00939938
-0.0164756
-0.024433
-0.0345574
-0.0447035
-0.0594664
-0.0707036
-0.0914095
-0.108246
-0.114096
-0.121551
-0.0913001
-0.0594045
-0.0105962
0.0271328
0.190281
0.332079
0.290205
0.252801
0.2096
0.177821
0.12971
0.0940635
0.0596635
0.0428521
0.0267745
0.0169378
0.00917729
0.00394799
0.000161753
-0.00245273
-0.00425309
-0.00545573
-0.00623078
-0.00670267
-0.0069614
-0.00707396
-0.00709022
-0.00704705
-0.00697182
-0.00688474
-0.00680046
-0.00672967
-0.00667951
-0.00665443
0.0240806
0.0239149
0.0235821
0.0230765
0.0223884
0.0215052
0.02041
0.019082
0.0174958
0.0156198
0.0134171
0.010845
0.00785368
0.00438956
0.00035872
-0.00422936
-0.00968148
-0.0155385
-0.0231397
-0.0301399
-0.0410022
-0.04823
-0.062942
-0.0771546
-0.0797323
-0.0869665
-0.0654984
-0.0455155
-0.0351335
-0.00247757
0.131171
0.297445
0.297833
0.247878
0.210948
0.178374
0.130163
0.0911462
0.0590087
0.0428884
0.027192
0.0174479
0.00958491
0.00418796
0.000198966
-0.00262162
-0.00461546
-0.00598939
-0.00691152
-0.00750781
-0.00786976
-0.00806689
-0.00815161
-0.00816323
-0.00813122
-0.0080775
-0.00801824
-0.00796529
-0.00792658
-0.00790712
0.0234107
0.0232677
0.0229815
0.0225484
0.0219621
0.0212145
0.0202953
0.0191914
0.0178884
0.0163682
0.0146136
0.0126041
0.0103168
0.00773661
0.00480109
0.00159346
-0.00217045
-0.00588613
-0.0109008
-0.0148077
-0.0217477
-0.0251938
-0.0341214
-0.0464248
-0.0474442
-0.0553474
-0.0375421
-0.0297736
-0.0345918
-0.0185664
0.0340095
0.0782257
0.143169
0.163774
0.179634
0.152268
0.112705
0.0769006
0.0504995
0.0370582
0.0233969
0.0148744
0.00773821
0.00276007
-0.000993568
-0.00369557
-0.00563988
-0.00700721
-0.0079445
-0.00856604
-0.00895691
-0.00918302
-0.00929462
-0.00932985
-0.00931777
-0.00928029
-0.00923374
-0.00919011
-0.0091575
-0.00914105
0.0228835
0.0227652
0.0225294
0.0221746
0.0216978
0.0210958
0.0203642
0.0194985
0.0184946
0.0173493
0.0160627
0.0146343
0.0130679
0.0113869
0.00956027
0.00774018
0.00566703
0.00406899
0.00165509
0.000790283
-0.00214238
-0.00178838
-0.00462988
-0.0150064
-0.0148101
-0.0245014
-0.0183634
-0.0256943
-0.0449542
-0.0625511
-0.0742988
-0.156592
-0.160816
0.0329767
0.114031
0.100924
0.0801501
0.0542909
0.0359631
0.0266596
0.0162071
0.00971694
0.00395894
-0.000123363
-0.00328508
-0.00559891
-0.00728632
-0.00848702
-0.00931903
-0.00987407
-0.0102235
-0.0104251
-0.0105228
-0.0105509
-0.0105355
-0.010497
-0.0104506
-0.0104076
-0.0103756
-0.0103595
0.0224736
0.0223808
0.0221971
0.0219232
0.021559
0.0211058
0.0205651
0.019941
0.0192396
0.0184702
0.017648
0.0167925
0.0159313
0.0151251
0.0143729
0.0138901
0.0134505
0.0138809
0.0140135
0.0161009
0.0172386
0.0215341
0.0254257
0.0177681
0.0200724
0.00913829
-0.000715828
-0.0218267
-0.0513091
-0.0911752
-0.144052
-0.280487
-0.287576
-0.0424313
0.03084
0.0379462
0.0400376
0.0277899
0.018084
0.0134901
0.00678391
0.00273396
-0.00127421
-0.00415023
-0.00646375
-0.00818539
-0.00945751
-0.0103674
-0.0109939
-0.011405
-0.0116526
-0.0117824
-0.0118297
-0.0118224
-0.0117823
-0.0117267
-0.0116686
-0.0116179
-0.0115812
-0.011563
0.0221551
0.0220877
0.0219557
0.0217618
0.0215087
0.0212015
0.0208479
0.020459
0.0200497
0.01964
0.0192591
0.0189439
0.0187427
0.0187486
0.0189893
0.0197358
0.0208036
0.0230852
0.0256019
0.0304482
0.0355921
0.0439022
0.055148
0.0516447
0.0580938
0.0498241
0.0313957
0.0039261
-0.0338361
-0.0802826
-0.137623
-0.235266
-0.12192
-0.0811685
-0.0386816
-0.0181463
0.001633
0.00196445
-0.000303287
-0.000570164
-0.00363051
-0.00522458
-0.00738105
-0.00892732
-0.0102617
-0.0112715
-0.0120235
-0.0125567
-0.0129065
-0.0131141
-0.0132129
-0.0132332
-0.0132
-0.0131336
-0.0130506
-0.0129639
-0.0128837
-0.0128179
-0.0127719
-0.0127493
0.0219018
0.0218587
0.0217763
0.0216585
0.0215109
0.0213421
0.0211646
0.020995
0.0208558
0.0207758
0.0207958
0.0209671
0.0213538
0.0220748
0.0231827
0.0249918
0.0273647
0.0312217
0.0358193
0.0430548
0.0518587
0.0639287
0.0825044
0.0849629
0.0984108
0.098349
0.0753053
0.0377287
-0.00994863
-0.0546276
-0.110888
-0.0909926
-0.0384423
-0.117743
-0.0817783
-0.0567442
-0.0288149
-0.0200685
-0.0170398
-0.0140002
-0.0139698
-0.0133891
-0.0138039
-0.0140517
-0.0143908
-0.0146529
-0.0148389
-0.0149483
-0.0149787
-0.0149457
-0.014863
-0.0147475
-0.0146118
-0.0144685
-0.0143281
-0.0141993
-0.0140888
-0.014002
-0.0139429
-0.013914
0.021689
0.0216684
0.0216315
0.0215837
0.0215325
0.0214897