/*--------------------------------*- C++ -*----------------------------------*\
  =========                 |
  \\      /  F ield         | OpenFOAM: The Open Source CFD Toolbox
   \\    /   O peration     | Website:  https://openfoam.org
    \\  /    A nd           | Version:  12
     \\/     M anipulation  |
\*---------------------------------------------------------------------------*/
FoamFile
{
    format      ascii;
    class       surfaceScalarField;
    location    "260";
    object      phi;
}
// * * * * * * * * * * * * * * * * * * * * * * * * * * * * * * * * * * * * * //

dimensions      [0 3 -1 0 0 0 0];

internalField   nonuniform List<scalar> 
32440
(
-1.73313e-07
0.0399882
1.65673e-06
0.0399882
-5.07143e-07
0.0399902
1.33826e-06
0.0399882
-8.03781e-07
0.0399901
1.0697e-06
0.0399981
9.62046e-07
0.0400101
8.76363e-07
0.0400101
2.81615e-06
0.0400101
4.78443e-06
0.04001
6.78442e-06
0.04001
2.8193e-06
0.040004
2.89128e-06
0.0399999
3.00338e-06
0.0399999
3.15742e-06
0.0399998
3.3548e-06
0.0399998
3.59624e-06
0.0399998
3.88169e-06
0.0399997
4.21026e-06
0.0399997
4.58004e-06
0.0399996
4.98801e-06
0.0399996
5.43002e-06
0.0399996
5.901e-06
0.0399995
6.39473e-06
0.0399995
6.90407e-06
0.0399995
7.42112e-06
0.0399995
7.93735e-06
0.0399995
8.44359e-06
0.0399995
7.33184e-06
0.0400011
2.13258e-06
0.0400052
1.02051e-06
0.0400011
1.20476e-06
0.0399998
1.54024e-06
0.0399997
1.82185e-06
0.0399997
3.04584e-06
0.0399988
3.20994e-06
0.0399998
3.31311e-06
0.0399999
3.35574e-06
0.04
3.33941e-06
0.04
3.26674e-06
0.0400001
3.14117e-06
0.0400001
2.96681e-06
0.0400002
2.74812e-06
0.0400002
2.48987e-06
0.0400003
2.19671e-06
0.0400003
1.87336e-06
0.0400003
1.52431e-06
0.0400003
1.15428e-06
0.0400004
7.65833e-07
0.0400004
3.62965e-07
0.0400004
-5.13939e-08
0.0400004
-2.47466e-06
0.0400024
-8.90368e-06
0.0400064
-3.33853e-06
0.0400064
2.22022e-07
0.0400084
-2.20302e-07
0.0400104
1.33601e-06
0.0399984
8.91411e-07
0.0399884
4.46354e-07
0.0399904
0.0399884
-7.15767e-07
0.0399889
-1.41989e-06
0.0399889
-2.10272e-06
0.0399908
-2.75374e-06
0.0399888
-1.3621e-06
0.0399888
8.2846e-08
0.0399967
1.59232e-06
0.0400086
1.17783e-06
0.0400105
2.85124e-06
0.0400084
6.62363e-06
0.0400063
1.05079e-05
0.0400061
2.51591e-06
0.040012
-1.34613e-06
0.0400038
-1.06668e-06
0.0399996
-6.38191e-07
0.0399994
-5.41423e-08
0.0399992
6.89397e-07
0.039999
1.59373e-06
0.0399988
2.65743e-06
0.0399986
3.87566e-06
0.0399984
5.23874e-06
0.0399982
6.73372e-06
0.0399981
8.34429e-06
0.0399979
1.00498e-05
0.0399978
1.18264e-05
0.0399977
1.38469e-05
0.0399975
1.56822e-05
0.0399976
1.71016e-05
0.0399981
1.7473e-05
0.0400007
1.34592e-05
0.0400092
1.35493e-05
0.040001
1.49976e-05
0.0399984
1.62865e-05
0.0399984
1.73959e-05
0.0399986
1.71105e-05
0.0399991
1.78212e-05
0.0399991
1.83192e-05
0.0399994
1.8605e-05
0.0399997
1.86822e-05
0.0399999
1.8558e-05
0.0400002
1.82426e-05
0.0400004
1.7749e-05
0.0400007
1.70918e-05
0.0400009
1.6288e-05
0.0400011
1.73508e-05
0.0399992
1.62976e-05
0.0400014
1.51441e-05
0.0400015
1.39044e-05
0.0400016
1.25932e-05
0.0400017
1.12232e-05
0.0400018
7.80306e-06
0.0400038
2.34518e-06
0.0400079
-1.14235e-06
0.0400099
-6.57183e-07
0.0400059
-1.91532e-07
0.040008
2.60362e-07
0.04001
4.70273e-06
0.039994
1.13839e-06
0.039992
1.57019e-06
0.03999
0.03999
-1.40547e-06
0.0399903
-2.78973e-06
0.0399903
-2.138e-06
0.0399902
-3.43265e-06
0.0399901
-6.65527e-06
0.039992
-1.7864e-06
0.0399918
-2.80901e-06
0.0400096
-1.70058e-06
0.0400094
-4.42756e-07
0.0400071
9.87251e-07
0.0400048
2.60774e-06
0.0400045
-5.55358e-06
0.0400201
-7.49047e-06
0.0400057
-7.18144e-06
0.0399993
-6.60894e-06
0.0399988
-5.76234e-06
0.0399984
-4.63223e-06
0.0399979
-3.21444e-06
0.0399974
2.49093e-06
0.0399929
4.79264e-07
0.0400004
2.73324e-06
0.039996
5.23289e-06
0.0399956
7.95128e-06
0.0399952
1.08544e-05
0.0399949
1.39016e-05
0.0399947
1.70466e-05
0.0399943
2.02388e-05
0.0399945
2.34233e-05
0.0399949
2.49472e-05
0.0399992
2.22684e-05
0.0400119
2.35934e-05
0.0399997
2.60104e-05
0.039996
2.83645e-05
0.039996
3.0419e-05
0.0399966
3.31449e-05
0.0399963
3.45203e-05
0.0399977
3.55363e-05
0.0399984
3.619e-05
0.039999
3.64808e-05
0.0399996
3.64217e-05
0.0400003
3.60292e-05
0.0400008
3.53244e-05
0.0400014
3.43339e-05
0.0400019
3.30781e-05
0.0400023
2.95894e-05
0.0400027
2.78941e-05
0.0400031
2.60206e-05
0.0400034
2.59906e-05
0.0400016
2.38293e-05
0.0400039
1.95586e-05
0.040006
1.51982e-05
0.0400082
2.77137e-06
0.0400203
6.27775e-06
0.0400064
5.73606e-06
0.0400065
5.15868e-06
0.0400086
6.55418e-06
0.0400086
7.93075e-06
0.0399926
5.29339e-06
0.0399946
2.64771e-06
0.0399927
0.0399927
-2.23619e-06
0.0399925
-4.44104e-06
0.0399925
-6.5961e-06
0.0399924
-8.67645e-06
0.0399922
-8.65613e-06
0.039992
-1.05088e-05
0.0399937
-6.20683e-06
0.0400053
-5.72364e-06
0.0400089
-5.02655e-06
0.0400064
-6.08909e-06
0.0400059
-6.87633e-06
0.0400053
-1.13554e-05
0.0400246
-1.55118e-05
0.0400099
-1.73116e-05
0.0400011
-1.67335e-05
0.0399983
-1.37533e-05
0.0399954
-1.03592e-05
0.0399945
1.45636e-06
0.0399856
9.69927e-06
0.0399847
3.7276e-07
0.0400098
-2.55844e-06
0.0399989
8.84776e-07
0.0399921
4.66605e-06
0.0399914
8.73786e-06
0.0399908
1.3043e-05
0.0399904
1.75157e-05
0.0399898
2.20836e-05
0.0399899
2.64695e-05
0.0399905
2.95902e-05
0.0399961
2.82866e-05
0.0400132
3.09241e-05
0.0399971
3.45839e-05
0.0399923
3.8281e-05
0.0399923
4.13624e-05
0.0399935
4.27843e-05
0.0399949
4.4915e-05
0.0399956
4.65355e-05
0.0399968
4.76397e-05
0.0399979
5.02305e-05
0.0399971
5.03235e-05
0.0400002
4.99416e-05
0.0400012
4.91169e-05
0.0400022
4.78755e-05
0.0400031
4.62625e-05
0.0400039
4.43169e-05
0.0400047
4.20724e-05
0.0400053
3.95676e-05
0.0400059
3.48447e-05
0.0400064
3.39311e-05
0.0400048
3.08594e-05
0.0400091
1.76604e-05
0.0400214
1.43596e-05
0.0400236
1.09637e-05
0.0400098
9.49914e-06
0.040008
7.98278e-06
0.0400101
1.24284e-05
0.0400041
8.84322e-06
0.0399962
7.23792e-06
0.0399963
3.61957e-06
0.0399963
0.0399963
-3.19108e-06
0.0399957
-6.34068e-06
0.0399956
-9.42748e-06
0.0399954
-1.2419e-05
0.0399952
-1.52843e-05
0.0399948
-1.59867e-05
0.0399944
-1.04922e-05
0.0399998
-1.2764e-05
0.0400112
-1.47639e-05
0.0400084
-1.44512e-05
0.0400056
-1.37851e-05
0.0400046
-1.47192e-05
0.0400255
-2.322e-05
0.0400184
-2.52598e-05
0.0400031
-2.47976e-05
0.0399978
-2.3805e-05
0.0399944
-1.6258e-05
0.0399869
-1.4957e-07
0.0399695
-3.44869e-06
0.039988
-1.01631e-05
0.0400165
-1.03371e-05
0.0399991
-5.99129e-06
0.0399878
-1.17117e-06
0.0399866
4.06416e-06
0.0399856
9.64056e-06
0.0399848
1.54708e-05
0.039984
2.14584e-05
0.0399839
2.74986e-05
0.0399845
3.18882e-05
0.0399917
3.20306e-05
0.0400131
3.60715e-05
0.039993
4.12538e-05
0.0399871
4.57807e-05
0.0399878
5.01776e-05
0.0399891
5.45786e-05
0.0399905
5.7543e-05
0.0399927
5.98443e-05
0.0399945
6.14697e-05
0.0399963
6.04335e-05
0.0399981
6.07446e-05
0.0399999
6.04365e-05
0.0400015
6.15487e-05
0.0400011
6.01253e-05
0.0400045
5.82191e-05
0.0400058
5.58716e-05
0.040007
5.31428e-05
0.040008
5.00825e-05
0.0400089
4.67294e-05
0.0400097
4.1137e-05
0.0400104
2.93408e-05
0.0400209
1.33909e-05
0.0400373
2.12816e-05
0.0400157
1.90616e-05
0.040012
1.47563e-05
0.0400123
1.43838e-05
0.0400104
1.79606e-05
0.0400006
1.34993e-05
0.0400007
9.01066e-06
0.0400007
4.50523e-06
0.0400008
0.0400008
-4.2532e-06
0.04
-6.45429e-06
0.0399978
-1.05812e-05
0.0399996
-1.45951e-05
0.0399992
-1.84566e-05
0.0399987
-2.21236e-05
0.039998
-2.15528e-05
0.0399993
-1.86995e-05
0.0400083
-2.15165e-05
0.0400113
-2.3952e-05
0.040008
-2.39592e-05
0.0400046
-7.48478e-06
0.0400091
-2.64368e-05
0.0400373
-3.48305e-05
0.0400115
-3.65969e-05
0.0399996
-3.36954e-05
0.0399915
-2.40986e-05
0.0399773
-1.77735e-05
0.0399631
-1.86865e-05
0.0399889
-2.28488e-05
0.0400206
-2.03042e-05
0.0399965
-1.50749e-05
0.0399825
-9.21385e-06
0.0399807
-2.79363e-06
0.0399792
4.0941e-06
0.0399779
1.13404e-05
0.0399768
1.90233e-05
0.0399762
2.62111e-05
0.0399773
3.23627e-05
0.0399856
3.40603e-05
0.0400114
3.96093e-05
0.0399875
4.60266e-05
0.0399807
5.22853e-05
0.0399815
5.74848e-05
0.0399839
6.11525e-05
0.0399868
6.50323e-05
0.0399888
7.00821e-05
0.0399894
7.22938e-05
0.0399941
7.36746e-05
0.0399967
7.42479e-05
0.0399993
7.40567e-05
0.0400017
7.11388e-05
0.040004
6.95671e-05
0.0400061
6.93894e-05
0.040006
6.66843e-05
0.0400097
6.35045e-05
0.0400112
5.99165e-05
0.0400125
5.59776e-05
0.0400137
4.97418e-05
0.0400166
3.52663e-05
0.0400354
3.25948e-05
0.04004
2.97369e-05
0.0400186
2.47482e-05
0.040017
2.16568e-05
0.0400154
2.64887e-05
0.0400056
2.12539e-05
0.0400058
1.59737e-05
0.040006
1.06616e-05
0.0400061
5.32964e-06
0.0400061
0.0400061
-5.42188e-06
0.0400054
-1.07821e-05
0.0400032
-1.60572e-05
0.0400048
-2.1203e-05
0.0400043
-2.61737e-05
0.0400037
-3.09204e-05
0.0400028
-3.33918e-05
0.0400017
-2.95313e-05
0.0400045
-3.12887e-05
0.040013
-3.25991e-05
0.0400093
-3.54007e-05
0.0400074
-3.36332e-05
0.0400073
-3.31934e-05
0.0400369
-4.80593e-05
0.0400264
-4.81763e-05
0.0399997
-4.14799e-05
0.0399848
-1.99482e-05
0.0399558
-3.34775e-05
0.0399767
-3.40755e-05
0.0399895
-3.57344e-05
0.0400223
-3.25006e-05
0.0399933
-2.63949e-05
0.0399764
-1.94762e-05
0.0399738
-1.18289e-05
0.0399715
-3.56567e-06
0.0399696
5.38385e-06
0.0399678
1.42675e-05
0.0399673
2.35185e-05
0.039968
3.11664e-05
0.0399779
3.45559e-05
0.040008
4.17442e-05
0.0399803
4.99281e-05
0.0399725
5.72422e-05
0.0399742
6.41643e-05
0.039977
7.07961e-05
0.0399802
7.56678e-05
0.0399839
7.75362e-05
0.0399875
8.03858e-05
0.0399912
8.22284e-05
0.0399949
8.50948e-05
0.0399964
8.50361e-05
0.0400018
8.41144e-05
0.0400049
8.24028e-05
0.0400078
7.79815e-05
0.0400104
7.69191e-05
0.0400108
7.33088e-05
0.0400148
6.92148e-05
0.0400166
6.47106e-05
0.0400182
4.78661e-05
0.0400334
2.67617e-05
0.0400565
3.93816e-05
0.0400274
3.58088e-05
0.0400222
3.2094e-05
0.0400207
3.42627e-05
0.0400132
2.83357e-05
0.0400115
2.23384e-05
0.0400118
1.62901e-05
0.040012
1.02061e-05
0.0400121
6.10096e-06
0.0400102
0.0400122
-4.69837e-06
0.0400101
-1.33282e-05
0.0400118
-1.98629e-05
0.0400114
-2.42532e-05
0.0400087
-3.04503e-05
0.0400099
-3.63976e-05
0.0400087
-4.20343e-05
0.0400074
-4.33031e-05
0.0400057
-4.21326e-05
0.0400118
-4.64549e-05
0.0400137
-5.01899e-05
0.0400112
-4.92774e-05
0.0400064
-2.76237e-05
0.0400152
-5.10499e-05
0.0400498
-6.56428e-05
0.0400143
-6.1271e-05
0.0399804
-5.18923e-05
0.0399464
-5.13909e-05
0.0399762
-4.97598e-05
0.0399878
-5.09687e-05
0.0400235
-4.70665e-05
0.0399894
-4.00861e-05
0.0399695
-3.20768e-05
0.0399658
-2.31457e-05
0.0399626
-1.34165e-05
0.0399599
-3.04905e-06
0.0399575
7.77176e-06
0.0399565
1.88447e-05
0.039957
2.81559e-05
0.0399686
3.36042e-05
0.0400025
4.26092e-05
0.0399713
5.23141e-05
0.0399628
6.14313e-05
0.0399651
6.96085e-05
0.0399688
7.77156e-05
0.0399721
8.36677e-05
0.039978
8.84274e-05
0.0399828
9.1966e-05
0.0399877
9.43044e-05
0.0399925
9.34847e-05
0.0399972
9.55721e-05
0.0399997
9.46506e-05
0.0400058
9.27955e-05
0.0400097
9.01173e-05
0.0400131
8.67117e-05
0.0400142
8.26642e-05
0.0400189
7.80645e-05
0.0400212
6.90099e-05
0.0400272
5.15676e-05
0.0400509
4.78213e-05
0.0400602
4.57801e-05
0.0400294
4.15347e-05
0.0400264
4.51285e-05
0.0400171
4.05917e-05
0.0400177
3.39511e-05
0.0400182
2.7235e-05
0.0400185
2.04643e-05
0.0400188
1.36555e-05
0.0400189
6.82329e-06
0.0400171
0.040019
-8.08715e-06
0.0400182
-1.60954e-05
0.0400198
-2.20012e-05
0.0400173
-3.17558e-05
0.0400185
-3.72979e-05
0.0400154
-4.45704e-05
0.040016
-5.15065e-05
0.0400143
-5.80354e-05
0.0400123
-5.6073e-05
0.0400099
-5.95511e-05
0.0400171
-6.43765e-05
0.040016
-6.84491e-05
0.0400105
-6.56795e-05
0.0400125
-7.58935e-05
0.04006
-7.91081e-05
0.0400175
-6.92151e-05
0.0399705
-7.20999e-05
0.0399493
-7.16723e-05
0.0399757
-6.78885e-05
0.0399841
-6.86964e-05
0.0400243
-6.41606e-05
0.0399849
-5.62902e-05
0.0399616
-4.71492e-05
0.0399567
-3.68488e-05
0.0399523
-2.55363e-05
0.0399486
-1.34046e-05
0.0399453
-6.70041e-07
0.0399438
1.22185e-05
0.0399441
2.40007e-05
0.0399568
3.13302e-05
0.0399952
4.23568e-05
0.0399602
5.39876e-05
0.0399512
6.50866e-05
0.039954
7.48612e-05
0.039959
8.21759e-05
0.0399648
8.93143e-05
0.0399708
9.5025e-05
0.0399771
0.000101294
0.0399814
0.000104149
0.0399897
0.000105653
0.0399957
0.000103871
0.0400015
0.000104923
0.0400048
0.000102919
0.0400117
9.99651e-05
0.0400161
9.41822e-05
0.04002
9.16809e-05
0.0400214
8.45821e-05
0.0400283
6.49656e-05
0.0400468
3.89754e-05
0.0400769
5.8559e-05
0.0400407
5.38609e-05
0.0400341
5.69665e-05
0.0400233
4.98879e-05
0.0400242
4.26726e-05
0.0400249
3.53533e-05
0.0400255
2.79565e-05
0.0400259
2.25059e-05
0.0400242
1.5015e-05
0.0400264
5.49871e-06
0.0400266
0.0400245
-9.58493e-06
0.0400278
-1.70816e-05
0.0400273
-2.8477e-05
0.0400287
-3.57081e-05
0.0400257
-4.67224e-05
0.0400264
-5.54488e-05
0.0400247
-6.18155e-05
0.0400207
-6.97475e-05
0.0400202
-7.71548e-05
0.0400173
-7.3935e-05
0.0400139
-7.80039e-05
0.0400201
-8.52388e-05
0.0400177
-8.7522e-05
0.0400148
-8.07037e-05
0.0400532
-8.66989e-05
0.0400235
-6.7469e-05
0.0399513
-8.87291e-05
0.0399706
-9.04769e-05
0.0399775
-9.0633e-05
0.0399842
-8.71138e-05
0.0400208
-8.19589e-05
0.0399797
-7.51789e-05
0.0399548
-6.48497e-05
0.0399463
-5.30746e-05
0.0399405
-4.00382e-05
0.0399356
-2.59511e-05
0.0399312
-1.08847e-05
0.0399287
4.26522e-06
0.0399289
1.81798e-05
0.0399429
2.78502e-05
0.0399855
4.1357e-05
0.0399467
5.5153e-05
0.0399374
6.78466e-05
0.0399413
7.96079e-05
0.0399472
9.04594e-05
0.0399539
9.8882e-05
0.0399624
0.000105614
0.0399703
0.000108648
0.0399784
0.000114024
0.0399843
0.000115823
0.0399939
0.000116158
0.0400011
0.000113146
0.0400078
0.000112926
0.0400119
0.000109652
0.0400193
0.000105457
0.0400242
9.84788e-05
0.0400284
9.08295e-05
0.040036
7.46394e-05
0.040063
6.80226e-05
0.0400835
6.69853e-05
0.0400417
6.96737e-05
0.0400314
6.21259e-05
0.0400308
5.43978e-05
0.0400319
4.65327e-05
0.0400328
3.85646e-05
0.0400335
3.25233e-05
0.040032
2.2424e-05
0.0400343
1.62924e-05
0.0400326
8.13607e-06
0.0400347
0.0400327
-1.11917e-05
0.040039
-2.22906e-05
0.0400384
-3.12819e-05
0.0400377
-4.4115e-05
0.0400385
-5.27159e-05
0.040035
-6.30309e-05
0.040035
-7.29713e-05
0.0400306
-8.24555e-05
0.0400297
-9.13852e-05
0.0400262
-9.96534e-05
0.0400222
-9.71382e-05
0.0400175
-0.000101718
0.0400223
-0.000105293
0.0400183
-7.36932e-05
0.0400216
-0.000100531
0.0400503
-0.000110066
0.0399608
-0.000115905
0.0399764
-0.000115999
0.0399776
-0.000110218
0.0399784
-0.000100461
0.040011
-0.000104694
0.0399839
-9.69881e-05
0.0399471
-8.53852e-05
0.0399347
-7.20187e-05
0.0399272
-5.70666e-05
0.0399206
-4.08013e-05
0.039915
-2.35286e-05
0.0399114
-5.81284e-06
0.0399112
1.09559e-05
0.0399261
2.3299e-05
0.0399732
3.92027e-05
0.0399308
5.54452e-05
0.0399211
7.07874e-05
0.039926
8.41395e-05
0.0399339
9.48872e-05
0.0399432
0.000104705
0.0399526
0.000114513
0.0399605
0.000120326
0.0399726
0.000122206
0.0399824
0.00012626
0.0399899
0.000126634
0.0400008
0.000125489
0.040009
0.000123003
0.0400144
0.000119338
0.040023
0.000114667
0.0400288
0.000105146
0.0400379
7.8922e-05
0.0400622
6.01486e-05
0.0400818
7.88611e-05
0.0400648
8.11915e-05
0.0400394
7.52317e-05
0.0400374
6.7044e-05
0.040039
5.86807e-05
0.0400403
5.2189e-05
0.0400393
4.35963e-05
0.0400421
3.29365e-05
0.0400426
2.62313e-05
0.040041
1.54889e-05
0.0400433
8.73232e-06
0.0400415
0.0400414
-1.29047e-05
0.0400519
-2.57127e-05
0.0400512
-3.84181e-05
0.0400504
-4.89619e-05
0.0400491
-6.32893e-05
0.0400493
-7.33186e-05
0.0400451
-8.69787e-05
0.0400443
-9.61629e-05
0.0400389
-0.000106788
0.0400368
-0.000116716
0.0400321
-0.000125819
0.0400266
-0.000123942
0.0400204
-0.000128936
0.0400233
-0.000126666
0.0400194
-0.000122772
0.0400464
-0.000141243
0.0399793
-0.000143866
0.039979
-0.000140475
0.0399742
-0.000130915
0.0399689
-9.70864e-05
0.0399772
-0.000116661
0.0400035
-0.000119985
0.0399504
-0.000109035
0.0399238
-9.39139e-05
0.039912
-7.68358e-05
0.0399035
-5.79039e-05
0.039896
-3.80883e-05
0.0398916
-1.72359e-05
0.0398903
2.38695e-06
0.0399065
1.78018e-05
0.0399578
3.66862e-05
0.039912
5.59372e-05
0.0399019
7.34213e-05
0.0399085
8.94074e-05
0.0399179
0.00010383
0.0399288
0.00011514
0.0399413
0.000122076
0.0399536
0.000130665
0.039964
0.000134998
0.0399781
0.000135231
0.0399896
0.000137551
0.0399984
0.000136166
0.0400103
0.00013129
0.0400193
0.000129136
0.0400252
0.000121903
0.0400361
0.000103764
0.040056
7.29376e-05
0.040093
8.34592e-05
0.0400713
9.5498e-05
0.0400527
8.91733e-05
0.0400457
8.05638e-05
0.040046
7.17332e-05
0.0400479
6.27485e-05
0.0400493
5.3643e-05
0.0400484
4.44538e-05
0.0400512
3.72101e-05
0.0400499
2.7925e-05
0.0400503
1.86145e-05
0.0400526
9.29009e-06
0.0400508
0.0400507
-1.47201e-05
0.0400666
-2.93419e-05
0.0400658
-4.38686e-05
0.0400649
-5.82466e-05
0.0400635
-7.04111e-05
0.0400615
-8.4298e-05
0.040059
-9.78212e-05
0.0400578
-0.000110882
0.0400519
-0.00012337
0.0400493
-0.000135151
0.0400439
-0.000144067
0.0400356
-0.000153974
0.0400303
-0.000154658
0.040024
-0.000157995
0.0400227
-0.00012975
0.0400182
-0.000159285
0.0400088
-0.000170841
0.0399906
-0.000172129
0.0399755
-0.000166926
0.0399637
-0.000151015
0.0399613
-0.000156132
0.0400086
-0.000150517
0.0399448
-0.000136127
0.0399094
-0.000119069
0.039895
-9.9605e-05
0.0398841
-7.80607e-05
0.0398745
-5.49013e-05
0.0398685
-3.08426e-05
0.0398663
-7.47637e-06
0.0398831
1.15112e-05
0.0399388
3.38552e-05
0.0398896
5.6137e-05
0.0398796
7.69318e-05
0.0398877
9.52185e-05
0.0398996
0.000109712
0.0399143
0.000124618
0.0399264
0.000134699
0.0399435
0.000140015
0.0399587
0.000146707
0.0399714
0.000148991
0.0399874
0.000147114
0.0400003
0.000147342
0.0400101
0.000143946
0.0400227
0.000139167
0.0400299
0.000127243
0.040048
0.000108403
0.0400749
0.000100814
0.0401006
0.000110633
0.0400615
0.000103968
0.0400594
9.49561e-05
0.0400547
8.56801e-05
0.0400553
7.62108e-05
0.0400573
6.86081e-05
0.0400569
5.69035e-05
0.0400601
4.91422e-05
0.040059
3.73333e-05
0.0400617
2.75029e-05
0.0400601
1.96614e-05
0.0400605
9.80926e-06
0.0400607
0.0400605
-1.66313e-05
0.0400832
-3.11588e-05
0.0400804
-4.76126e-05
0.0400814
-6.39343e-05
0.0400798
-8.0068e-05
0.0400776
-9.59459e-05
0.0400748
-0.000111485
0.0400733
-0.000126584
0.040067
-0.000141127
0.0400639
-0.000152965
0.0400557
-0.000167942
0.0400505
-0.000179861
0.0400422
-0.000188499
0.0400327
-0.000187631
0.0400218
-0.000191039
0.0400216
-0.00020018
0.040018
-0.000205065
0.0399955
-0.000205318
0.0399757
-0.000202652
0.039961
-0.000196837
0.0399555
-0.000193583
0.0400054
-0.000183022
0.0399343
-0.000167085
0.0398935
-0.000147897
0.0398758
-0.000125715
0.0398619
-0.00010096
0.0398497
-7.39385e-05
0.0398414
-4.59122e-05
0.0398383
-1.85853e-05
0.0398558
4.5952e-06
0.0399156
3.09846e-05
0.0398632
5.72188e-05
0.0398534
8.11592e-05
0.0398638
0.000102284
0.0398785
0.000121038
0.0398955
0.000133641
0.0399138
0.000146855
0.0399303
0.000154806
0.0399507
0.000157711
0.0399685
0.000161859
0.0399832
0.000161592
0.0400006
0.00015923
0.0400125
0.000155109
0.0400268
0.000143536
0.0400415
0.000112793
0.0400787
9.11542e-05
0.0400965
0.000118718
0.0400731
0.0001177
0.0400625
0.000108272
0.0400688
0.000100533
0.0400624
9.05775e-05
0.0400653
8.04611e-05
0.0400674
7.02436e-05
0.0400671
5.99624e-05
0.0400704
4.96455e-05
0.0400693
4.13143e-05
0.04007
3.09725e-05
0.0400705
2.06289e-05
0.0400708
1.02888e-05
0.040071
0.0400708
-1.86301e-05
0.0401019
-3.71661e-05
0.0400989
-5.56404e-05
0.0400998
-7.40115e-05
0.0400982
-9.2229e-05
0.0400959
-0.00011023
0.0400928
-0.000125931
0.040089
-0.00014324
0.0400843
-0.000158019
0.0400786
-0.000176153
0.0400739
-0.000189422
0.0400638
-0.000203622
0.0400564
-0.000216533
0.0400456
-0.000227835
0.0400331
-0.000229218
0.040023
-0.000236292
0.0400251
-0.000240797
0.04
-0.00024235
0.0399773
-0.000240545
0.0399592
-0.000235043
0.03995
-0.000229536
0.0399999
-0.000220017
0.0399247
-0.000202436
0.0398759
-0.000180879
0.0398542
-0.000155629
0.0398366
-0.00012714
0.0398212
-9.60588e-05
0.0398104
-6.31449e-05
0.0398053
-3.09018e-05
0.0398236
-2.75177e-06
0.0398874
2.84159e-05
0.0398321
5.88602e-05
0.0398229
8.66596e-05
0.039836
0.000110998
0.0398542
0.000132438
0.0398741
0.000148796
0.0398974
0.000159091
0.03992
0.000169511
0.0399403
0.000174394
0.0399636
0.000176151
0.0399815
0.000175192
0.0400015
0.000171983
0.0400157
0.0001649
0.0400339
0.000140329
0.0400661
0.000104642
0.0401144
0.000125975
0.0400752
0.000132555
0.0400665
0.000122661
0.0400724
0.000116413
0.0400751
0.000103902
0.040075
9.52344e-05
0.0400739
8.44711e-05
0.0400782
7.36497e-05
0.0400779
6.4811e-05
0.0400792
5.19624e-05
0.0400822
4.11294e-05
0.0400808
3.03121e-05
0.0400813
2.15153e-05
0.0400796
1.07263e-05
0.0400818
0.0400815
-1.86972e-05
0.0401205
-4.13224e-05
0.0401215
-6.1905e-05
0.0401204
-8.04151e-05
0.0401167
-0.000100827
0.0401163
-0.000121073
0.0401131
-0.0001411
0.0401091
-0.000160793
0.040104
-0.000180035
0.0400979
-0.000196667
0.0400905
-0.000216508
0.0400837
-0.000233312
0.0400732
-0.000246804
0.0400591
-0.000260647
0.040047
-0.0002705
0.0400328
-0.000273858
0.0400284
-0.000282391
0.0400085
-0.000283611
0.0399785
-0.000283019
0.0399586
-0.000276178
0.0399431
-0.000254674
0.0399784
-0.000258174
0.0399282
-0.000242834
0.0398605
-0.000218653
0.03983
-0.000189901
0.0398079
-0.000157098
0.0397884
-0.000120978
0.0397742
-8.27118e-05
0.0397671
-4.43839e-05
0.0397852
-1.02891e-05
0.0398533
2.65845e-05
0.0397952
6.22392e-05
0.0397873
9.47479e-05
0.0398034
0.00012273
0.0398262
0.00014469
0.0398521
0.000164823
0.0398773
0.000178042
0.0399068
0.000186669
0.0399317
0.0001912
0.0399591
0.000192176
0.0399805
0.000190182
0.0400035
0.000183762
0.0400221
0.000173414
0.0400442
0.000149589
0.0400899
0.000150665
0.0401133
0.000148789
0.040077
0.000140352
0.0400749
0.000127527
0.0400852
0.000120346
0.0400823
0.000111032
0.0400843
9.96345e-05
0.0400853
8.82122e-05
0.0400896
7.6798e-05
0.0400893
6.5411e-05
0.0400906
5.60778e-05
0.0400915
4.4782e-05
0.0400921
3.35289e-05
0.0400926
2.03061e-05
0.0400928
1.11189e-05
0.040091
0.0400926
-2.28374e-05
0.0401434
-4.5604e-05
0.0401443
-6.63591e-05
0.0401412
-9.1112e-05
0.0401414
-0.000111809
0.040137
-0.000134432
0.0401357
-0.000156911
0.0401315
-0.00017916
0.0401263
-0.000201058
0.0401198
-0.000222439
0.0401119
-0.000241132
0.0401023
-0.000260861
0.040093
-0.000279313
0.0400775
-0.00029616
0.0400638
-0.000310903
0.0400476
-0.000323066
0.0400406
-0.000324134
0.0400096
-0.000331519
0.0399859
-0.000328633
0.0399557
-0.000316939
0.0399314
-0.000265932
0.0399274
-0.000288339
0.0399506
-0.000287095
0.0398593
-0.000261997
0.0398049
-0.000229254
0.0397751
-0.00019143
0.0397506
-0.000149367
0.0397322
-0.00010423
0.0397219
-5.90133e-05
0.03974
-1.77253e-05
0.0398121
2.60271e-05
0.0397514
6.81055e-05
0.0397452
0.000105712
0.0397658
0.000137854
0.039794
0.000164742
0.0398252
0.000182621
0.0398594
0.000198491
0.0398909
0.000204916
0.0399252
0.000210576
0.0399534
0.000208258
0.0399828
0.000206747
0.0400051
0.000194701
0.0400341
0.000154756
0.0400842
0.000135434
0.0401092
0.000160905
0.0400879
0.000161687
0.0400763
0.000150021
0.0400866
0.000138107
0.0400971
0.000125984
0.0400944
0.000115838
0.0400944
0.000101709
0.0400994
9.16428e-05
0.0400997
7.96536e-05
0.0401013
6.77569e-05
0.0401025
5.59532e-05
0.0401033
4.42352e-05
0.0401039
3.45967e-05
0.0401022
2.30097e-05
0.0401044
1.14628e-05
0.0401025
0.0401041
-2.50133e-05
0.0401684
-4.99732e-05
0.0401693
-7.49693e-05
0.0401662
-9.80025e-05
0.0401645
-0.000125092
0.0401641
-0.000148181
0.0401588
-0.000173251
0.0401566
-0.00019822
0.0401512
-0.000222979
0.0401445
-0.000247378
0.0401363
-0.000271214
0.0401262
-0.000292218
0.040114
-0.000316078
0.0401014
-0.000334361
0.0400821
-0.000352578
0.0400658
-0.000368095
0.0400561
-0.000380329
0.0400218
-0.000380537
0.0399861
-0.000383934
0.0399591
-0.000379732
0.0399272
-0.000357244
0.0399049
-0.000355279
0.0399487
-0.000342233
0.0398463
-0.000311972
0.0397747
-0.000274672
0.0397378
-0.000230945
0.0397069
-0.000181805
0.039683
-0.000128842
0.039669
-7.47824e-05
0.039686
-2.46945e-05
0.039762
2.74482e-05
0.0396993
7.70555e-05
0.0396956
0.000120729
0.0397222
0.000157823
0.0397569
0.00018784
0.0397952
0.000209272
0.039838
0.000223358
0.0398768
0.000230904
0.0399177
0.000233005
0.0399513
0.000230737
0.0399851
0.000221075
0.0400147
0.000194879
0.0400603
0.000152971
0.0401261
0.000173585
0.0400886
0.000181274
0.0400802
0.000170522
0.040087
0.000155526
0.0401016
0.000144397
0.0401082
0.000133293
0.0401055
0.000118279
0.0401094
0.000107415
0.0401103
9.47088e-05
0.0401124
8.21721e-05
0.0401139
6.97991e-05
0.0401149
5.95825e-05
0.0401135
4.749e-05
0.0401159
3.34986e-05
0.0401162
2.36013e-05
0.0401143
9.74667e-06
0.0401164
0.0401139
-2.72071e-05
0.0401956
-5.23729e-05
0.0401944
-8.16459e-05
0.0401954
-0.000109027
0.0401918
-0.000134538
0.0401896
-0.000164206
0.0401885
-0.000189963
0.0401824
-0.000217815
0.0401791
-0.000243622
0.0401704
-0.000271276
0.0401639
-0.000298557
0.0401535
-0.000325244
0.0401406
-0.000350947
0.0401271
-0.00037523
0.0401064
-0.000397532
0.0400881
-0.000415144
0.0400737
-0.00043132
0.040038
-0.000445185
0.04
-0.000445652
0.0399596
-0.000443761
0.0399253
-0.000432378
0.0398935
-0.000402544
0.0399188
-0.000397583
0.0398413
-0.000369777
0.0397469
-0.000327317
0.0396954
-0.000276747
0.0396563
-0.000219152
0.0396254
-0.000156198
0.039606
-9.17027e-05
0.0396215
-3.07314e-05
0.039701
3.17812e-05
0.0396368
9.03826e-05
0.039637
0.000141947
0.0396706
0.000184491
0.0397144
0.000215605
0.0397641
0.000240234
0.0398133
0.000251728
0.0398653
0.000259466
0.03991
0.000255014
0.0399558
0.000243869
0.0399962
0.00022925
0.0400293
0.000208275
0.0400813
0.000205656
0.0401287
0.000203911
0.0400904
0.000193648
0.0400905
0.000175175
0.0401055
0.000158737
0.040118
0.000150301
0.0401167
0.000136127
0.0401197
0.000124252
0.0401213
0.000110656
0.0401239
9.73446e-05
0.0401257
8.42964e-05
0.0401269
7.35065e-05
0.0401257
5.89104e-05
0.0401281
4.8506e-05
0.0401264
3.62373e-05
0.0401285
2.40757e-05
0.0401265
1.19847e-05
0.0401285
0.0401258
-2.93915e-05
0.040225
-5.87783e-05
0.0402238
-8.63003e-05
0.040223
-0.00011604
0.0402216
-0.000148046
0.0402216
-0.000176316
0.0402167
-0.00020689
0.0402129
-0.000237738
0.0402099
-0.000268791
0.0402014
-0.00029994
0.0401951
-0.000331007
0.0401845
-0.000361737
0.0401714
-0.000389768
0.0401551
-0.000418626
0.0401352
-0.000443744
0.0401132
-0.000466371
0.0400963
-0.000489362
0.040061
-0.000505845
0.0400165
-0.000516562
0.0399703
-0.000511984
0.0399208
-0.000496955
0.0398785
-0.000430146
0.039852
-0.000448878
0.03986
-0.000435164
0.0397332
-0.000388857
0.0396491
-0.000330319
0.0395978
-0.000262417
0.0395575
-0.000187899
0.0395315
-0.000109964
0.0395435
-3.53257e-05
0.0396264
4.01375e-05
0.0395613
0.00011031
0.0395668
0.000170721
0.0396102
0.000219339
0.0396658
0.000255971
0.0397275
0.000279138
0.0397902
0.000290887
0.0398536
0.000289375
0.0399115
0.000271064
0.0399741
0.000237893
0.0400294
0.000205464
0.0400618
0.000192904
0.0400939
0.000224897
0.0400967
0.000218374
0.0400969
0.000201796
0.040107
0.000183403
0.0401239
0.000169296
0.0401321
0.000155584
0.0401304
0.00014237
0.0401329
0.00012763
0.040136
0.000113343
0.0401382
9.94751e-05
0.0401396
8.79888e-05
0.0401384
7.28136e-05
0.0401408
6.19291e-05
0.040139
4.72565e-05
0.040141
3.67772e-05
0.0401389
2.24144e-05
0.0401408
1.21534e-05
0.0401387
0.040138
-3.15338e-05
0.0402565
-6.3096e-05
0.0402554
-9.48657e-05
0.0402547
-0.000126952
0.0402537
-0.000157413
0.040252
-0.000190343
0.0402497
-0.000223776
0.0402464
-0.000257716
0.0402439
-0.000292175
0.0402359
-0.000327041
0.0402299
-0.000360169
0.0402177
-0.000395334
0.0402065
-0.000430248
0.04019
-0.000464396
0.0401694
-0.000495201
0.040144
-0.000517891
0.040119
-0.000548715
0.0400918
-0.000575104
0.0400428
-0.000591321
0.0399865
-0.000599521
0.039929
-0.00058771
0.0398667
-0.000561904
0.0398262
-0.000547523
0.0398456
-0.000513473
0.0396991
-0.000460891
0.0395965
-0.000393422
0.0395303
-0.000313426
0.0394775
-0.000223725
0.0394418
-0.000129301
0.0394491
-3.68488e-05
0.0395339
5.49009e-05
0.0394696
0.000138951
0.0394828
0.000210586
0.0395386
0.000266576
0.0396098
0.000306244
0.0396878
0.000326924
0.0397695
0.000332456
0.0398481
0.000313522
0.0399304
0.000289383
0.0399982
0.000276623
0.0400421
0.000245169
0.0400932
0.000247991
0.0400911
0.000248186
0.0400965
0.00023257
0.0401125
0.000209428
0.0401302
0.000186966
0.0401463
0.000175108
0.040144
0.000160073
0.0401454
0.000143823
0.0401491
0.000128274
0.0401516
0.000115369
0.0401511
0.000101012
0.0401539
8.71509e-05
0.0401523
7.36935e-05
0.0401543
6.05762e-05
0.0401521
4.97402e-05
0.0401519
3.51e-05
0.0401536
2.46306e-05
0.0401513
1.22544e-05
0.0401511
0.0401502
-3.35976e-05
0.0402901
-6.72616e-05
0.040289
-0.000101211
0.0402887
-0.000133566
0.040286
-0.000168479
0.0402869
-0.000204045
0.0402852
-0.000242371
0.0402847
-0.000277476
0.040279
-0.000315429
0.0402738
-0.000352181
0.0402667
-0.000393678
0.0402592
-0.000431689
0.0402446
-0.000471932
0.0402303
-0.000512017
0.0402095
-0.000551246
0.0401833
-0.000584801
0.0401526
-0.000621165
0.0401282
-0.000651122
0.0400728
-0.000674836
0.0400102
-0.000689759
0.0399439
-0.000693095
0.03987
-0.000671937
0.0398051
-0.000637366
0.0398111
-0.000607068
0.0396688
-0.000548203
0.0395376
-0.000470376
0.0394525
-0.000376411
0.0393836
-0.000268518
0.0393339
-0.000151317
0.0393319
-3.55361e-05
0.0394181
7.51503e-05
0.0393589
0.000177371
0.0393805
0.000262478
0.0394535
0.0003267
0.0395456
0.000367671
0.0396468
0.000388386
0.0397488
0.000371678
0.0398648
0.000342384
0.0399597
0.000327973
0.0400126
0.000317652
0.0400525
0.000301662
0.0401092
0.000287128
0.0401056
0.00026507
0.0401185
0.000241966
0.0401356
0.00021803
0.0401541
0.000199316
0.0401651
0.000181818
0.0401615
0.000165534
0.0401617
0.000148322
0.0401664
0.000132058
0.0401679
0.00011662
0.0401665
0.000101887
0.0401687
8.77464e-05
0.0401664
7.61042e-05
0.0401659
6.08422e-05
0.0401674
4.79045e-05
0.0401648
3.72146e-05
0.0401643
2.46939e-05
0.0401638
1.22836e-05
0.0401635
0.0401625
-3.55417e-05
0.0403257
-6.91752e-05
0.0403227
-0.000105192
0.0403247
-0.000143767
0.0403246
-0.000181037
0.0403242
-0.000219176
0.0403234
-0.000256315
0.0403218
-0.000296606
0.0403193
-0.000338108
0.0403153
-0.000380918
0.0403095
-0.000422955
0.0403012
-0.000470175
0.0402918