/*--------------------------------*- C++ -*----------------------------------*\
  =========                 |
  \\      /  F ield         | OpenFOAM: The Open Source CFD Toolbox
   \\    /   O peration     | Website:  https://openfoam.org
    \\  /    A nd           | Version:  12
     \\/     M anipulation  |
\*---------------------------------------------------------------------------*/
FoamFile
{
    format      ascii;
    class       volVectorField;
    location    "260";
    object      U;
}
// * * * * * * * * * * * * * * * * * * * * * * * * * * * * * * * * * * * * * //

dimensions      [0 1 -1 0 0 0 0];

internalField   nonuniform List<vector> 
16227
(
(2 -5.31553e-06 -1.02054e-22)
(2 -1.586e-05 1.02424e-22)
(2 -2.61663e-05 -1.02425e-22)
(2 -3.61244e-05 -1.02822e-22)
(2 -4.55844e-05 1.02824e-22)
(2 -5.43972e-05 1.03438e-22)
(2 -6.24196e-05 4.02735e-25)
(2 -6.94973e-05 -2.08077e-22)
(2 -7.54719e-05 3.13755e-22)
(2 -8.01794e-05 -2.09488e-22)
(2 -8.34559e-05 0)
(2 -8.51476e-05 2.12203e-22)
(2 -8.5126e-05 0)
(2 -8.32633e-05 0)
(2 -7.94207e-05 0)
(2 -7.35007e-05 0)
(2 -6.54298e-05 0)
(2 -5.51644e-05 0)
(2 -4.26955e-05 0)
(2 -2.80593e-05 0)
(2 -1.13452e-05 -2.20111e-22)
(2 7.3038e-06 -3.51206e-26)
(2 2.76964e-05 2.20143e-22)
(2 4.95929e-05 0)
(2 7.27015e-05 -2.18687e-22)
(2 9.66855e-05 2.18685e-22)
(2 0.00012117 0)
(2 0.000145752 1.07814e-22)
(2 0.000170018 0)
(2 0.000193551 0)
(2 0.000215934 0)
(2 0.000236788 0)
(2 0.000255758 0)
(2 0.000272542 1.98857e-22)
(2 0.000286888 -3.41533e-24)
(2 0.000298617 -1.95437e-22)
(2 0.000307602 0)
(2 0.000313786 1.84429e-22)
(2 0.000317171 -3.80955e-24)
(2 0.000317814 -1.8062e-22)
(2 0.000315821 0)
(2 0.000311335 0)
(2 0.000304531 0)
(2 0.000295603 0)
(2 0.000284759 0)
(2 0.00027221 0)
(2 0.000258163 0)
(2 0.00024283 0)
(2 0.00022639 0)
(2 0.000209008 0)
(2 0.000190851 0)
(2 0.000172057 0)
(2 0.000152772 0)
(2 0.000133074 0)
(2 0.000113053 -6.73139e-23)
(2 9.27729e-05 6.73163e-23)
(2 7.2311e-05 0)
(2 5.17336e-05 0)
(2 3.10817e-05 0)
(2 1.0376e-05 6.56004e-23)
(2.00003 -1.95992e-05 1.38717e-25)
(2.00002 -5.84566e-05 0)
(2.00002 -9.64797e-05 0)
(2.00002 -0.000133258 0)
(2.00002 -0.000168249 -1.73924e-22)
(2.00002 -0.000200943 0)
(2.00002 -0.000230809 0)
(2.00002 -0.000257294 -5.28285e-22)
(2.00001 -0.000279825 3.52503e-22)
(2.00001 -0.000297834 -7.11891e-22)
(2.00001 -0.000310713 2.85648e-21)
(2 -0.000317822 -1.79193e-21)
(2 -0.000318743 9.00004e-22)
(1.99999 -0.000313039 0)
(1.99999 -0.000300167 0)
(1.99998 -0.000279762 0)
(1.99998 -0.00025153 0)
(1.99997 -0.00021529 0)
(1.99997 -0.000170982 0)
(1.99996 -0.000118706 0)
(1.99996 -5.87526e-05 0)
(1.99995 8.36128e-06 0)
(1.99995 8.19634e-05 0)
(1.99995 0.000161215 0)
(1.99994 0.000245071 0)
(1.99994 0.000332322 -3.68351e-22)
(1.99994 0.000421613 3.68333e-22)
(1.99994 0.000511486 -1.82283e-22)
(1.99994 0.00060041 0)
(1.99995 0.000686868 0)
(1.99995 0.000769297 0)
(1.99995 0.000846299 0)
(1.99996 0.000916581 0)
(1.99996 0.000979007 0)
(1.99997 0.00103265 0)
(1.99998 0.00107681 -3.24507e-22)
(1.99998 0.00111099 6.26428e-24)
(1.99999 0.00113495 6.4023e-24)
(1.99999 0.00114868 6.48152e-24)
(2 0.00115237 3.05344e-22)
(2.00001 0.00114638 2.92372e-22)
(2.00001 0.00113122 -2.92374e-22)
(2.00002 0.0011075 0)
(2.00002 0.00107595 0)
(2.00003 0.00103729 0)
(2.00003 0.000992297 0)
(2.00003 0.000941713 0)
(2.00004 0.000886298 0)
(2.00004 0.000826734 0)
(2.00004 0.000763649 0)
(2.00004 0.000697633 2.39091e-22)
(2.00004 0.00062919 -4.76017e-22)
(2.00005 0.000558838 -4.64837e-22)
(2.00005 0.000486949 4.64874e-22)
(2.00005 0.000413782 -4.54723e-22)
(2.00005 0.000339632 6.8014e-22)
(2.00005 0.00026478 -2.25505e-22)
(2.00005 0.000189442 1.11492e-22)
(2.00005 0.000113799 -1.11496e-22)
(2.00005 3.79614e-05 -2.4844e-25)
(2.00008 -3.69117e-05 1.72179e-22)
(2.00008 -0.000110024 0)
(2.00008 -0.000181743 0)
(2.00007 -0.000251312 0)
(2.00007 -0.000317809 1.73912e-22)
(2.00006 -0.000380344 -3.49416e-22)
(2.00006 -0.000437997 -1.40807e-24)
(2.00005 -0.000489801 5.2649e-22)
(2.00004 -0.00053474 1.76475e-22)
(2.00003 -0.000571822 7.1176e-22)
(2.00002 -0.00060001 -7.09934e-22)
(2.00001 -0.00061805 -1.43273e-21)
(2 -0.00062523 1.80355e-22)
(1.99998 -0.000620785 0)
(1.99997 -0.000603683 1.824e-22)
(1.99995 -0.000573248 0)
(1.99994 -0.000528903 0)
(1.99992 -0.000470275 0)
(1.99991 -0.000397187 -7.43516e-22)
(1.99989 -0.000309651 7.43479e-22)
(1.99988 -0.000208185 -3.73185e-22)
(1.99986 -9.36719e-05 3.73195e-22)
(1.99985 3.27663e-05 0)
(1.99984 0.000169737 -3.72283e-22)
(1.99983 0.000315424 1.23938e-24)
(1.99983 0.000467719 3.70994e-22)
(1.99982 0.00062425 0)
(1.99982 0.000782441 0)
(1.99983 0.00093962 0)
(1.99983 0.00109307 0)
(1.99984 0.00123999 1.74788e-22)
(1.99985 0.00137782 -3.52509e-22)
(1.99987 0.00150425 0)
(1.99989 0.00161722 0)
(1.9999 0.00171503 3.30945e-22)
(1.99992 0.00179641 -3.30921e-22)
(1.99994 0.00186044 0)
(1.99996 0.00190666 0)
(1.99998 0.001935 0)
(2 0.00194574 0)
(2.00002 0.00193949 0)
(2.00004 0.00191712 0)
(2.00005 0.00187972 -1.41143e-22)
(2.00007 0.00182851 0)
(2.00008 0.00176477 0)
(2.00009 0.00168983 0)
(2.0001 0.00160504 -1.27096e-22)
(2.00011 0.00151169 2.56396e-22)
(2.00012 0.00141098 0)
(2.00013 0.00130403 1.21971e-22)
(2.00013 0.00119185 0)
(2.00013 0.00107539 2.36864e-22)
(2.00014 0.00095548 4.63542e-22)
(2.00014 0.0008328 1.09372e-22)
(2.00014 0.000707818 -4.58027e-22)
(2.00014 0.000581098 2.24753e-22)
(2.00015 0.000453112 -2.24834e-22)
(2.00015 0.000324208 0)
(2.00015 0.000194747 0)
(2.00015 6.49053e-05 -1.10512e-22)
(2.00017 -5.77523e-05 0)
(2.00017 -0.000172096 0)
(2.00017 -0.000284531 -1.72491e-22)
(2.00016 -0.000393949 0)
(2.00015 -0.000499055 -1.73816e-22)
(2.00014 -0.000598596 1.73807e-22)
(2.00013 -0.000691258 0)
(2.00011 -0.000775667 -5.28367e-22)
(2.0001 -0.000850338 5.27306e-22)
(2.00008 -0.000913842 0)
(2.00006 -0.00096475 -7.15177e-22)
(2.00003 -0.00100111 -2.15207e-21)
(2 -0.00102181 -3.60611e-22)
(1.99998 -0.00102578 0)
(1.99995 -0.00101143 -1.82351e-22)
(1.99991 -0.000977675 0)
(1.99988 -0.000923593 0)
(1.99985 -0.000848584 1.4849e-21)
(1.99981 -0.00075222 -1.48527e-21)
(1.99978 -0.000634264 0)
(1.99975 -0.000495483 -3.74167e-22)
(1.99972 -0.000337127 -2.54181e-25)
(1.99969 -0.000160601 1.89125e-25)
(1.99967 3.21515e-05 3.74338e-22)
(1.99965 0.000238559 0)
(1.99964 0.000455594 0)
(1.99963 0.000679863 0)
(1.99963 0.000907637 1.82779e-22)
(1.99964 0.00113498 -2.88318e-25)
(1.99965 0.00135797 1.79022e-22)
(1.99967 0.00157244 -1.36039e-24)
(1.99969 0.00177457 0)
(1.99972 0.00196095 0)
(1.99976 0.00212852 0)
(1.99979 0.00227476 -3.31639e-22)
(1.99983 0.0023977 6.31373e-24)
(1.99987 0.00249598 6.516e-24)
(1.99991 0.0025689 6.65394e-24)
(1.99995 0.00261628 6.17413e-22)
(1.99999 0.00263852 -3.05316e-22)
(2.00003 0.00263648 0)
(2.00007 0.00261141 -1.44165e-22)
(2.0001 0.00256484 1.41113e-22)
(2.00013 0.00249851 0)
(2.00016 0.00241429 0)
(2.00019 0.00231409 0)
(2.00021 0.00219982 -1.29255e-22)
(2.00022 0.00207333 0)
(2.00024 0.00193633 0)
(2.00025 0.00179041 -2.43291e-22)
(2.00026 0.00163705 -4.74642e-22)
(2.00027 0.00147756 9.42125e-22)
(2.00028 0.00131326 -4.6767e-22)
(2.00029 0.00114486 -5.70671e-22)
(2.00029 0.000973206 4.55793e-22)
(2.00029 0.000799098 0)
(2.0003 0.000623193 0)
(2.0003 0.000445915 1.10376e-22)
(2.0003 0.000267854 0)
(2.0003 8.92018e-05 0)
(2.00031 -8.16904e-05 0)
(2.00031 -0.000243434 0)
(2.0003 -0.000402786 4.89581e-25)
(2.00029 -0.000558298 0)
(2.00028 -0.000708334 0)
(2.00026 -0.000851275 -3.47533e-22)
(2.00024 -0.000985416 -5.25167e-22)
(2.00021 -0.00110898 5.23761e-22)
(2.00018 -0.00122006 0)
(2.00015 -0.00131668 0)
(2.00011 -0.00139707 -7.14619e-22)
(2.00007 -0.00145857 4.29918e-21)
(2.00003 -0.0014995 -3.59388e-22)
(1.99998 -0.00151837 3.61679e-22)
(1.99992 -0.00151311 0)
(1.99987 -0.00148216 0)
(1.99981 -0.00142409 7.40541e-22)
(1.99975 -0.00133801 2.23586e-21)
(1.99969 -0.00122316 -1.11516e-21)
(1.99964 -0.0010789 0)
(1.99958 -0.000906136 0)
(1.99953 -0.000706571 0)
(1.99948 -0.000481666 0)
(1.99944 -0.000233958 -3.7548e-22)
(1.99941 3.32709e-05 1.10358e-24)
(1.99939 0.000316036 1.67084e-24)
(1.99937 0.000609825 3.72794e-22)
(1.99937 0.000909638 1.85245e-22)
(1.99938 0.00121029 -4.42936e-25)
(1.9994 0.00150646 -1.81952e-22)
(1.99943 0.00179248 5.35017e-22)
(1.99947 0.00206316 -3.55501e-22)
(1.99951 0.00231386 -3.44885e-22)
(1.99957 0.00254045 3.44836e-22)
(1.99963 0.00273943 3.32608e-22)
(1.9997 0.00290813 -3.32563e-22)
(1.99977 0.00304468 0)
(1.99984 0.00314811 0)
(1.99991 0.00321818 -3.05384e-22)
(1.99998 0.00325539 3.05364e-22)
(2.00004 0.00326087 2.91508e-22)
(2.00011 0.0032363 -1.47354e-22)
(2.00016 0.00318373 0)
(2.00022 0.00310545 0)
(2.00026 0.00300394 0)
(2.0003 0.00288172 0)
(2.00034 0.00274128 0)
(2.00037 0.00258506 0)
(2.0004 0.0024153 -1.22869e-22)
(2.00042 0.00223405 -5.99454e-22)
(2.00044 0.00204326 4.79693e-22)
(2.00046 0.00184462 4.64528e-22)
(2.00047 0.00163981 -6.94201e-22)
(2.00048 0.00142967 4.52622e-22)
(2.00049 0.00121542 -4.5264e-22)
(2.00049 0.000998066 0)
(2.0005 0.000778419 0)
(2.0005 0.000556984 -9.10781e-25)
(2.0005 0.000334556 0)
(2.0005 0.000111349 0)
(2.0005 -0.000108303 -1.70386e-22)
(2.00049 -0.000322769 0)
(2.00048 -0.000534399 7.40662e-26)
(2.00047 -0.000741435 1.71876e-22)
(2.00045 -0.000941921 0)
(2.00042 -0.00113389 5.1836e-25)
(2.00039 -0.00131526 -3.48759e-22)
(2.00035 -0.00148383 3.48679e-22)
(2.00031 -0.00163728 0)
(2.00026 -0.00177307 0)
(2.0002 -0.00188905 3.55562e-22)
(2.00014 -0.00198194 1.43182e-21)
(2.00007 -0.00204918 -7.20768e-22)
(1.99999 -0.00208892 3.62994e-22)
(1.99991 -0.00209862 0)
(1.99983 -0.00207605 -3.68898e-22)
(1.99974 -0.00201922 3.69047e-22)
(1.99965 -0.00192674 5.91546e-24)
(1.99955 -0.00179741 -1.67894e-21)
(1.99946 -0.00163009 -3.7605e-22)
(1.99938 -0.00142571 3.76903e-22)
(1.99929 -0.00118645 -5.97851e-25)
(1.99922 -0.000913653 3.78067e-22)
(1.99916 -0.00061052 0)
(1.9991 -0.000281022 0)
(1.99906 6.99104e-05 0)
(1.99904 0.000436572 0)
(1.99903 0.000812567 -1.85312e-22)
(1.99904 0.00119117 0)
(1.99907 0.0015656 0)
(1.99911 0.00192856 5.39896e-22)
(1.99917 0.00227316 -3.57772e-22)
(1.99924 0.00259345 0)
(1.99933 0.00288405 0)
(1.99942 0.00314044 0)
(1.99952 0.00335915 0)
(1.99963 0.00353773 3.19909e-22)
(1.99974 0.00367493 -7.17262e-24)
(1.99985 0.00377052 -4.67216e-22)
(1.99995 0.00382517 0)
(2.00005 0.00384033 0)
(2.00015 0.00381818 2.83978e-22)
(2.00023 0.00376134 -4.23964e-22)
(2.00031 0.00367274 0)
(2.00038 0.00355556 0)
(2.00045 0.00341298 0)
(2.0005 0.00324811 0)
(2.00055 0.00306401 0)
(2.00059 0.00286342 3.65308e-22)
(2.00063 0.00264892 9.50304e-22)
(2.00065 0.00242291 -9.51698e-22)
(2.00068 0.00218768 4.60595e-22)
(2.0007 0.00194479 -2.31089e-22)
(2.00071 0.00169554 0)
(2.00072 0.00144146 1.10896e-22)
(2.00073 0.00118372 0)
(2.00074 0.00092318 0)
(2.00074 0.000660538 -1.09444e-22)
(2.00075 0.000396725 0)
(2.00075 0.000131967 1.07315e-22)
(2.00074 -0.000137572 7.65368e-25)
(2.00073 -0.000410045 0)
(2.00072 -0.000679288 0)
(2.0007 -0.000943277 -1.70992e-22)
(2.00067 -0.00119976 0)
(2.00063 -0.00144642 1.72871e-22)
(2.00059 -0.00168083 -1.73838e-22)
(2.00053 -0.00190038 3.47801e-22)
(2.00047 -0.00210234 0)
(2.0004 -0.00228357 -7.08057e-22)
(2.00032 -0.00244144 3.52597e-22)
(2.00023 -0.00257237 4.7792e-24)
(2.00013 -0.0026725 1.44541e-21)
(2.00003 -0.00273929 -7.27026e-22)
(1.99991 -0.00276997 -2.66651e-24)
(1.99979 -0.00276152 -1.87879e-22)
(1.99966 -0.00271129 3.7201e-21)
(1.99953 -0.00261721 -1.48091e-21)
(1.9994 -0.00247746 -2.43854e-21)
(1.99927 -0.00229024 3.40068e-21)
(1.99914 -0.00205644 3.80531e-22)
(1.99902 -0.00177856 -3.80473e-22)
(1.99891 -0.00145772 -3.27289e-25)
(1.99881 -0.00109782 3.80958e-22)
(1.99873 -0.00070347 0)
(1.99867 -0.000280657 0)
(1.99863 0.000163584 0)
(1.99861 0.00062136 0)
(1.99862 0.00108421 1.86885e-22)
(1.99866 0.0015436 0)
(1.99872 0.00199029 -5.4426e-22)
(1.9988 0.0024156 0)
(1.9989 0.00281195 3.48976e-22)
(1.99902 0.00317252 -3.48891e-22)
(1.99916 0.00349164 3.35415e-22)
(1.9993 0.003765 -7.19062e-24)
(1.99945 0.00398954 -6.48796e-22)
(1.99961 0.00416372 3.20637e-22)
(1.99976 0.00428734 -1.50889e-22)
(1.99991 0.00436131 3.05422e-22)
(2.00005 0.00438761 1.46883e-22)
(2.00019 0.00436898 0)
(2.00031 0.00430875 1.39964e-22)
(2.00042 0.00421064 0)
(2.00052 0.00407851 0)
(2.00061 0.00391634 1.29212e-22)
(2.00069 0.00372794 -1.26177e-22)
(2.00076 0.00351699 0)
(2.00081 0.00328677 1.4439e-21)
(2.00086 0.00304045 9.24326e-22)
(2.0009 0.00278086 -1.88605e-21)
(2.00093 0.00251075 -4.55835e-22)
(2.00096 0.00223164 1.01758e-21)
(2.00098 0.00194542 -4.49356e-22)
(2.001 0.00165376 -1.10883e-22)
(2.00101 0.00135794 0)
(2.00102 0.00105894 2.1561e-22)
(2.00103 0.000757601 -1.08017e-22)
(2.00103 0.000454967 0)
(2.00103 0.000151262 -1.34533e-24)
(2.00105 -0.000169555 1.69589e-22)
(2.00104 -0.000505452 0)
(2.00102 -0.000837807 0)
(2.00099 -0.00116434 1.70196e-22)
(2.00095 -0.00148255 -6.64951e-25)
(2.0009 -0.00178983 1.71475e-22)
(2.00084 -0.00208338 -1.72304e-22)
(2.00077 -0.00236022 -5.22378e-22)
(2.00069 -0.00261721 3.48359e-22)
(2.0006 -0.00285063 -7.06409e-22)
(2.00049 -0.00305716 -1.82458e-22)
(2.00037 -0.003233 1.06878e-21)
(2.00024 -0.00337325 -2.88094e-21)
(2.00009 -0.00347396 -1.45769e-21)
(1.99993 -0.00353233 1.45808e-21)
(1.99977 -0.00354447 -1.84366e-22)
(1.99959 -0.0035069 4.47933e-21)
(1.99941 -0.00341649 -7.41839e-22)
(1.99923 -0.00327057 -7.52156e-22)
(1.99904 -0.00306677 -2.2685e-21)
(1.99887 -0.00280561 3.85683e-22)
(1.9987 -0.00248986 0)
(1.99854 -0.00212034 0)
(1.9984 -0.0017015 -3.84206e-22)
(1.99828 -0.00123866 6.92763e-25)
(1.99819 -0.000739009 3.83732e-22)
(1.99814 -0.000210922 0)
(1.99811 0.000335937 3.77425e-22)
(1.99812 0.000891158 -5.64348e-22)
(1.99816 0.00144404 0)
(1.99824 0.00198307 1.77714e-22)
(1.99835 0.00249744 -7.22268e-22)
(1.99849 0.0029777 6.40053e-24)
(1.99865 0.0034154 6.96338e-22)
(1.99883 0.00380346 -7.32047e-24)
(1.99903 0.0041366 -3.37195e-22)
(1.99923 0.00441121 0)
(1.99944 0.00462553 3.13551e-22)
(1.99965 0.00477938 -8.02096e-24)
(1.99985 0.00487416 -3.05432e-22)
(2.00005 0.00491239 -2.93421e-22)
(2.00023 0.00489767 0)
(2.00039 0.00483413 0)
(2.00054 0.0047264 -1.34953e-22)
(2.00068 0.00457927 0)
(2.0008 0.00439752 -2.5726e-22)
(2.0009 0.00418572 1.2615e-22)
(2.00099 0.00394825 -2.44045e-22)
(2.00107 0.00368897 -1.43702e-21)
(2.00113 0.00341155 -9.31597e-22)
(2.00118 0.00311978 4.72883e-22)
(2.00123 0.00281602 -7.56186e-24)
(2.00126 0.00250226 -6.73537e-22)
(2.00129 0.00218087 2.20218e-22)
(2.00131 0.00185353 0)
(2.00133 0.0015217 0)
(2.00134 0.00118643 -1.56088e-24)
(2.00135 0.0008487 0)
(2.00135 0.000509599 0)
(2.00135 0.000169332 -1.05952e-22)
(2.00142 -0.000204282 0)
(2.0014 -0.000609086 0)
(2.00138 -0.00101009 1.6858e-22)
(2.00134 -0.00140485 -1.70051e-22)
(2.0013 -0.00179067 0)
(2.00123 -0.00216465 -3.41873e-22)
(2.00116 -0.0025237 1.71233e-22)
(2.00107 -0.00286444 1.72364e-22)
(2.00096 -0.00318332 0)
(2.00084 -0.00347612 0)
(2.00071 -0.00373871 -5.33246e-22)
(2.00055 -0.00396683 3.53353e-22)
(2.00038 -0.00415517 1.44564e-21)
(2.00019 -0.00429762 4.35936e-21)
(1.99998 -0.00439086 0)
(1.99977 -0.0044307 -7.41035e-22)
(1.99953 -0.00441223 -2.98337e-21)
(1.99929 -0.00433129 -7.54885e-22)
(1.99905 -0.00418397 -1.51774e-21)
(1.9988 -0.00396729 3.77829e-22)
(1.99856 -0.00368085 -7.67476e-22)
(1.99833 -0.00332772 -1.52647e-24)
(1.99812 -0.00290834 -9.33525e-25)
(1.99793 -0.00242753 3.88089e-22)
(1.99776 -0.00189145 0)
(1.99764 -0.00130839 0)
(1.99755 -0.000688421 0)
(1.99751 -4.32743e-05 1.93248e-22)
(1.99751 0.000614444 -1.91529e-22)
(1.99756 0.00127157 0)
(1.99766 0.00191372 3.63644e-22)
(1.9978 0.00252744 -3.6816e-22)
(1.99798 0.00310116 0)
(1.9982 0.00362437 0)
(1.99844 0.00408853 5.11981e-22)
(1.9987 0.00448722 -3.39399e-22)
(1.99897 0.0048162 -3.227e-22)
(1.99924 0.00507353 6.36692e-22)
(1.99951 0.00525935 -3.13989e-22)
(1.99978 0.00537566 0)
(2.00003 0.00542582 4.35141e-22)
(2.00027 0.00541436 -2.88568e-22)
(2.00048 0.00534661 -1.37796e-22)
(2.00068 0.00522821 2.68828e-22)
(2.00085 0.00506503 0)
(2.00101 0.00486276 1.28053e-22)
(2.00114 0.00462689 -2.46981e-22)
(2.00125 0.00436251 2.43978e-22)
(2.00135 0.00407416 -9.22399e-22)
(2.00143 0.00376603 4.93878e-22)
(2.0015 0.00344254 2.31198e-22)
(2.00155 0.00310584 1.10916e-22)
(2.0016 0.00275867 -1.10929e-22)
(2.00163 0.00240347 -1.09294e-22)
(2.00166 0.00204206 2.12794e-22)
(2.00168 0.001676 -1.00024e-24)
(2.00169 0.00130643 -2.11633e-22)
(2.0017 0.000934371 1.03574e-22)
(2.00171 0.000560922 0)
(2.00171 0.000186269 0)
(2.00186 -0.00024174 0)
(2.00184 -0.000720915 0)
(2.00181 -0.00119615 -3.35852e-22)
(2.00177 -0.00166488 0)
(2.00171 -0.00212426 0)
(2.00164 -0.00257121 1.05784e-24)
(2.00154 -0.00300231 0)
(2.00143 -0.00341384 -1.72656e-22)
(2.0013 -0.00380187 -1.74232e-22)
(2.00115 -0.00416162 1.73979e-22)
(2.00098 -0.00448825 -7.08356e-22)
(2.00079 -0.00477673 7.08299e-22)
(2.00057 -0.0050214 0)
(2.00033 -0.00521434 -4.34291e-21)
(2.00007 -0.00535075 -7.18777e-22)
(1.99979 -0.0054261 7.61824e-22)
(1.99949 -0.00543409 -4.4863e-21)
(1.99918 -0.00536915 1.5144e-21)
(1.99887 -0.00522602 -7.59722e-22)
(1.99854 -0.00500067 0)
(1.99823 -0.00469126 -7.79118e-22)
(1.99792 -0.00430116 0)
(1.99764 -0.00383021 -3.92455e-22)
(1.99738 -0.00328358 3.92605e-22)
(1.99716 -0.00266811 -3.93168e-22)
(1.99699 -0.00199347 1.95263e-22)
(1.99687 -0.00127159 0)
(1.9968 -0.000516502 -1.93256e-22)
(1.9968 0.00025636 5.80517e-22)
(1.99686 0.00103091 1.92065e-22)
(1.99698 0.00178942 -3.78307e-22)
(1.99716 0.00251515 -1.79616e-22)
(1.99739 0.00319377 3.6623e-22)
(1.99766 0.00381248 0)
(1.99797 0.00436088 1.69558e-22)
(1.9983 0.00483134 -8.84203e-24)
(1.99865 0.00521906 -9.06838e-24)
(1.999 0.00552205 -3.23786e-22)
(1.99935 0.00574088 3.05375e-22)
(1.99969 0.00587849 -4.55503e-22)
(2.00001 0.00593944 1.45566e-22)
(2.00031 0.00592952 0)
(2.00058 0.00585538 1.3778e-22)
(2.00083 0.00572405 -1.33874e-22)
(2.00105 0.00554264 0)
(2.00124 0.00531796 0)
(2.0014 0.00505637 2.46924e-22)
(2.00154 0.00476381 -3.73916e-24)
(2.00166 0.00444545 -2.14844e-23)
(2.00176 0.00410674 9.1825e-22)
(2.00184 0.00375142 2.25815e-22)
(2.00191 0.00338228 1.08919e-22)
(2.00196 0.00300247 1.07354e-22)
(2.002 0.00261453 -1.46863e-24)
(2.00204 0.0022204 -1.07918e-22)
(2.00206 0.0018217 0)
(2.00208 0.00141955 0)
(2.00209 0.00101502 -2.05113e-22)
(2.0021 0.000609204 0)
(2.0021 0.000202182 0)
(2.00238 -0.000281895 0)
(2.00236 -0.000840875 0)
(2.00233 -0.00139586 3.67776e-25)
(2.00227 -0.00194432 1.6685e-22)
(2.0022 -0.00248327 0)
(2.00211 -0.00300952 1.69251e-22)
(2.002 -0.00351944 1.70366e-22)
(2.00187 -0.00400896 1.33763e-24)
(2.00171 -0.00447376 1.13374e-24)
(2.00153 -0.00490863 -1.74741e-22)
(2.00132 -0.00530788 1.74718e-22)
(2.00108 -0.00566548 1.77159e-22)
(2.00082 -0.00597557 -3.58435e-22)
(2.00052 -0.00622855 -2.90168e-21)
(2.0002 -0.00641742 -7.43186e-22)
(1.99985 -0.00653753 2.96445e-21)
(1.99948 -0.00658086 2.25683e-21)
(1.99909 -0.00653939 -1.52026e-21)
(1.99868 -0.00640691 1.53626e-21)
(1.99827 -0.0061779 2.34463e-21)
(1.99786 -0.00584827 3.85939e-22)
(1.99747 -0.00542148 -4.02342e-24)
(1.9971 -0.00489686 -3.97651e-22)
(1.99676 -0.00427966 7.96705e-22)
(1.99647 -0.00357731 -3.99064e-22)
(1.99624 -0.00280097 1.98049e-22)
(1.99607 -0.00196467 0)
(1.99598 -0.00108535 1.99761e-22)
(1.99596 -0.000181694 2.01831e-22)
(1.99603 0.000726681 -1.94688e-22)
(1.99618 0.0016178 1.86672e-22)
(1.9964 0.00247088 1.86357e-22)
(1.99668 0.00326819 1.78214e-22)
(1.99703 0.00399412 -3.63145e-22)
(1.99742 0.00463612 0)
(1.99784 0.00518517 -3.35207e-22)
(1.99828 0.00563589 9.85209e-24)
(1.99872 0.0059865 3.25051e-22)
(1.99916 0.00623849 -3.05161e-22)
(1.99958 0.00639592 1.00192e-23)
(1.99998 0.00646508 4.86193e-24)
(2.00035 0.00645345 -4.16859e-22)
(2.00069 0.0063694 2.76758e-22)
(2.00099 0.00622158 -1.31167e-22)
(2.00126 0.00601857 -1.27115e-22)
(2.00149 0.00576844 -4.90392e-22)
(2.00169 0.00547859 1.44489e-21)
(2.00186 0.00515588 8.07809e-25)
(2.00201 0.00480611 1.86041e-21)
(2.00213 0.004436 6.66753e-22)
(2.00222 0.0040483 -1.13339e-22)
(2.0023 0.00364674 -2.17797e-22)
(2.00236 0.00323481 -1.05226e-22)
(2.00241 0.00281497 1.05242e-22)
(2.00245 0.00238927 -1.04154e-22)
(2.00248 0.00195928 -1.01548e-22)
(2.0025 0.00152617 1.01565e-22)
(2.00251 0.00109091 1.28309e-24)
(2.00252 0.000654578 1.00268e-22)
(2.00252 0.000217122 0)
(2.00299 -0.000324682 0)
(2.00296 -0.000968773 0)
(2.00292 -0.00160898 0)
(2.00286 -0.00224285 -1.66013e-22)
(2.00278 -0.00286738 1.65962e-22)
(2.00267 -0.00347937 -1.67869e-22)
(2.00254 -0.00407502 1.67824e-22)
(2.00239 -0.00465002 0)
(2.0022 -0.00519962 0)
(2.00199 -0.00571819 1.7385e-22)
(2.00174 -0.00619947 -3.49606e-22)
(2.00145 -0.00663601 -1.27128e-24)
(2.00113 -0.00702146 7.21061e-22)
(2.00078 -0.00734574 2.17969e-21)
(2.00038 -0.00759818 1.47779e-21)
(1.99995 -0.00777295 -1.48032e-21)
(1.9995 -0.00786149 -1.51579e-21)
(1.99901 -0.00785236 9.51212e-22)
(1.99851 -0.0077383 -7.77345e-22)
(1.99799 -0.00751161 3.17313e-23)
(1.99747 -0.00716541 -1.58967e-21)
(1.99697 -0.00670246 3.19368e-21)
(1.9965 -0.00612197 -4.01163e-22)
(1.99606 -0.00542863 0)
(1.99568 -0.00463041 0)
(1.99538 -0.00374001 0)
(1.99515 -0.00277411 0)
(1.99502 -0.00175278 -1.99773e-22)
(1.99499 -0.000698972 2.06684e-22)
(1.99506 0.000363351 8.51038e-25)
(1.99523 0.00140695 0)
(1.9955 0.00240621 1.84852e-22)
(1.99586 0.00333887 -1.92113e-22)
(1.99629 0.00418589 1.83151e-22)
(1.99678 0.00493211 3.48315e-22)
(1.9973 0.00556699 -5.20314e-22)
(1.99785 0.00608484 -3.26586e-22)
(1.9984 0.00648423 1.65713e-22)
(1.99894 0.00676806 0)
(1.99946 0.00694227 1.49876e-22)
(1.99995 0.00701526 8.55466e-25)
(2.0004 0.00699685 1.19088e-24)
(2.00081 0.0068976 -1.33994e-22)
(2.00118 0.0067281 -2.54859e-22)
(2.0015 0.00649872 3.83627e-22)
(2.00178 0.00621891 -9.64615e-22)
(2.00202 0.00589726 9.64417e-22)
(2.00222 0.00554177 -1.86611e-21)
(2.00238 0.00515863 2.00438e-21)
(2.00252 0.00475541 -6.67068e-22)
(2.00263 0.0043344 0)
(2.00272 0.00390021 1.0457e-22)
(2.00279 0.00345639 -1.04585e-22)
(2.00285 0.00300531 0)
(2.00289 0.00254904 0)
(2.00292 0.00208903 0)
(2.00295 0.0016265 0)
(2.00296 0.0011622 0)
(2.00297 0.00069714 0)
(2.00297 0.00023111 0)
(2.00368 -0.000369992 0)
(2.00364 -0.00110432 0)
(2.0036 -0.00183501 0)
(2.00353 -0.00255988 0)
(2.00344 -0.00327592 0)
(2.00332 -0.00398008 1.66321e-22)
(2.00318 -0.00466847 -3.33881e-22)
(2.003 -0.00533665 1.67581e-22)
(2.00278 -0.00597951 -1.70861e-22)
(2.00253 -0.00659099 -1.9634e-24)
(2.00224 -0.00716425 1.72762e-22)
(2.00191 -0.00769069 0)
(2.00153 -0.00816259 -3.61507e-22)
(2.0011 -0.00856978 -1.10131e-21)
(2.00063 -0.00889876 7.35739e-21)
(2.00011 -0.00914039 -2.96299e-21)
(1.99956 -0.00928573 1.51481e-21)
(1.99896 -0.00932011 1.27505e-24)
(1.99834 -0.00923405 9.72683e-22)
(1.9977 -0.00901758 -1.55594e-21)
(1.99706 -0.00865989 -3.22259e-21)
(1.99643 -0.00816163 1.24297e-23)
(1.99582 -0.007523 0)
(1.99527 -0.00674699 -4.12928e-22)
(1.99478 -0.00584212 -1.08046e-24)
(1.99438 -0.00482284 4.14584e-22)
(1.99408 -0.00370862 0)
(1.9939 -0.00252358 0)
(1.99385 -0.00129572 -2.01198e-22)
(1.99392 -5.44723e-05 -4.02079e-22)
(1.99413 0.00116631 3.92763e-22)
(1.99446 0.00233476 -2.00327e-22)
(1.9949 0.0034229 0)
(1.99543 0.00440735 -5.46835e-22)
(1.99604 0.00526996 1.83246e-22)
(1.99669 0.00599835 3.38523e-22)
(1.99736 0.00658669 -3.39882e-22)
(1.99804 0.00703471 1.60722e-22)
(1.9987 0.00734715 1.49297e-22)
(1.99934 0.00753274 -4.52717e-22)
(1.99993 0.00760293 1.08381e-24)
(2.00047 0.00757039 1.45591e-24)
(2.00096 0.00744856 1.33959e-22)
(2.00139 0.0072504 2.02329e-24)
(2.00177 0.00698819 0)
(2.00209 0.00667309 4.45049e-24)
(2.00237 0.00631488 9.45444e-22)
(2.0026 0.00592338 -1.78735e-21)
(2.00279 0.00550424 6.62324e-23)
(2.00295 0.00506579 -1.08756e-22)
(2.00308 0.00461037 0)
(2.00318 0.00414312 1.0195e-22)
(2.00326 0.00366746 -1.01965e-22)
(2.00332 0.00318568 0)
(2.00336 0.00269977 0)
(2.0034 0.002211 0)
(2.00342 0.00172052 9.5821e-23)
(2.00344 0.00122884 -9.58351e-23)
(2.00345 0.000736887 0)
(2.00345 0.000244147 0)
(2.00446 -0.000417665 0)
(2.00442 -0.00124699 0)
(2.00437 -0.00207317 0)
(2.0043 -0.00289436 0)
(2.0042 -0.00370771 0)
(2.00407 -0.00451042 -1.64545e-22)
(2.0039 -0.00529864 3.30415e-22)
(2.0037 -0.00606788 1.68503e-24)
(2.00346 -0.00681284 1.91178e-24)
(2.00317 -0.00752696 1.73664e-22)
(2.00284 -0.00820297 -5.16824e-22)
(2.00245 -0.0088313 -2.56424e-24)
(2.00201 -0.00940252 1.76349e-22)
(2.00152 -0.00990569 -3.66835e-22)
(2.00096 -0.0103261 -2.19512e-21)
(2.00034 -0.0106497 -2.23408e-21)
(1.99968 -0.0108653 -9.71507e-24)
(1.99896 -0.0109566 1.82211e-22)
(1.9982 -0.0109103 5.84279e-22)
(1.99742 -0.0107135 -2.39474e-21)
(1.99662 -0.0103512 -2.50801e-21)
(1.99584 -0.00982007 -8.15924e-22)
(1.99508 -0.00912133 0)
(1.99438 -0.00825535 -4.21547e-22)
(1.99376 -0.00723128 -1.74164e-24)
(1.99324 -0.00606531 4.23986e-22)
(1.99285 -0.00478014 2.15125e-22)
(1.9926 -0.00340457 0)
(1.99252 -0.00197305 4.24662e-22)
(1.9926 -0.000521786 -6.22958e-22)
(1.99284 0.00090673 2.04911e-22)
(1.99324 0.00227266 -3.92374e-22)
(1.99379 0.0035409 5.78023e-22)
(1.99444 0.00468221 -1.19034e-23)
(1.99518 0.0056749 -1.88665e-22)
(1.99599 0.00650473 1.73902e-22)
(1.99681 0.00716599 0)
(1.99764 0.00766023 0)
(1.99845 0.00799544 -1.48315e-22)
(1.99921 0.00818406 3.03875e-22)
(1.99992 0.00824172 1.42879e-22)
(2.00056 0.00818497 1.77995e-24)
(2.00114 0.00803064 -2.60094e-22)
(2.00164 0.00779468 -3.68562e-22)
(2.00208 0.00749151 1.45809e-21)
(2.00245 0.00713428 -9.50384e-22)
(2.00277 0.00673416 4.48029e-22)
(2.00303 0.00630219 1.33905e-21)
(2.00324 0.00584343 -1.52668e-21)
(2.00342 0.00536738 -2.11812e-22)
(2.00356 0.00487621 0)
(2.00367 0.00437532 -9.90634e-23)
(2.00375 0.00386777 9.90841e-23)
(2.00382 0.00335579 0)
(2.00387 0.00284117 9.47035e-23)
(2.0039 0.00232493 -9.47171e-23)
(2.00393 0.00180806 0)
(2.00395 0.00129074 0)
(2.00396 0.000773703 0)
(2.00395 0.00025621 0)
(2.00534 -0.000467488 0)
(2.0053 -0.0013962 0)
(2.00525 -0.00232247 0)
(2.00517 -0.00324496 0)
(2.00506 -0.00416115 0)
(2.00491 -0.00506859 0)
(2.00473 -0.00596363 -1.64012e-22)
(2.00451 -0.0068419 -1.80574e-24)
(2.00424 -0.007698 -1.69826e-22)
(2.00392 -0.00852513 1.65402e-22)
(2.00355 -0.00931546 -1.75116e-22)
(2.00311 -0.0100587 3.45028e-22)
(2.0026 -0.0107436 -3.56708e-22)
(2.00203 -0.011358 -6.54247e-24)
(2.00138 -0.0118856 3.29497e-21)
(2.00066 -0.0123087 -7.54663e-22)
(1.99987 -0.012612 -1.5395e-21)
(1.99901 -0.0127771 -2.07663e-22)
(1.9981 -0.0127856 -1.50934e-23)
(1.99715 -0.0126207 2.42828e-21)
(1.99617 -0.012263 -1.02325e-22)
(1.9952 -0.0117034 -4.21151e-22)
(1.99426 -0.0109432 6.36448e-22)
(1.99338 -0.00997954 2.17589e-22)
(1.99259 -0.0088219 0)
(1.99193 -0.00748811 2.21116e-22)
(1.99142 -0.00600445 -2.15125e-22)
(1.99109 -0.00440548 4.3256e-22)
(1.99096 -0.00273338 -6.43676e-22)
(1.99104 -0.00103335 6.30497e-22)
(1.99133 0.000641145 -2.1056e-22)
(1.99182 0.00223987 4.01652e-22)
(1.99249 0.00371822 -2.05792e-22)
(1.9933 0.00503963 5.68576e-22)
(1.99421 0.00617796 -1.42379e-23)
(1.9952 0.00711691 -5.37998e-22)
(1.99621 0.00785172 -3.30745e-22)
(1.99722 0.00838683 3.30482e-22)
(1.99819 0.008735 0)
(1.9991 0.00891428 1.47819e-22)
(1.99993 0.00894577 -1.39741e-22)
(2.00069 0.00885111 -1.31188e-22)
(2.00135 0.00865142 5.05179e-24)
(2.00193 0.00836605 0)
(2.00243 0.00801203 9.13852e-22)
(2.00285 0.0076046 -1.80629e-21)
(2.0032 0.00715628 -6.53831e-22)
(2.00349 0.00667812 -2.17876e-22)
(2.00373 0.00617576 1.02705e-22)
(2.00392 0.00565965 -7.01439e-22)
(2.00407 0.00513114 2.98183e-22)
(2.00419 0.00459595 -9.78862e-23)
(2.00428 0.00405652 0)
(2.00434 0.00351492 0)
(2.0044 0.00297266 0)
(2.00443 0.00243032 -9.06709e-23)
(2.00446 0.00188868 7.39438e-25)
(2.00448 0.0013476 8.99701e-23)
(2.00449 0.000807434 0)
(2.00447 0.00026725 0)
(2.00633 -0.000519131 -1.55787e-22)
(2.00628 -0.00155103 1.56224e-22)
(2.00623 -0.00258148 0)
(2.00614 -0.00360972 -1.5791e-22)
(2.00602 -0.00463381 1.57832e-22)
(2.00587 -0.00565184 0)
(2.00568 -0.00666052 1.61834e-22)
(2.00544 -0.00765579 1.92362e-24)
(2.00514 -0.00863233 -3.29452e-22)
(2.00479 -0.00958317 -1.70754e-22)
(2.00438 -0.0105002 1.65427e-22)
(2.00389 -0.0113724 1.70941e-22)
(2.00331 -0.0121872 0)
(2.00266 -0.0129302 0)
(2.00191 -0.013584 -3.63585e-22)
(2.00108 -0.0141264 -1.12527e-21)
(2.00015 -0.0145384 1.51879e-21)
(1.99914 -0.0147981 -1.18203e-21)
(1.99805 -0.0148808 -1.77081e-23)
(1.9969 -0.0147646 1.65749e-21)
(1.99572 -0.0144244 5.79753e-21)
(1.99452 -0.0138431 -8.59292e-22)
(1.99336 -0.013021 6.4841e-22)
(1.99226 -0.0119519 2.19913e-22)
(1.99126 -0.0106445 0)
(1.99042 -0.00911799 -2.21078e-22)
(1.98976 -0.00740257 0)
(1.98932 -0.00553949 2.23309e-22)
(1.98914 -0.0035808 -2.68517e-24)
(1.98922 -0.00158305 -8.81949e-22)
(1.98956 0.00038571 1.29861e-21)
(1.99016 0.00226141 -1.22858e-23)
(1.99098 0.00398698 -4.12343e-22)
(1.99198 0.00551641 4.18114e-24)
(1.99311 0.00681789 -1.7716e-22)
(1.99431 0.0078729 5.43023e-22)
(1.99555 0.00867872 0)
(1.99677 0.00924468 0)
(1.99793 0.00959071 -2.99549e-22)
(1.99901 0.00974274 1.46464e-23)
(1.99999 0.0097294 5.61764e-22)
(2.00086 0.00957876 5.3268e-24)
(2.00162 0.00931716 6.03791e-24)
(2.00228 0.00896784 9.50051e-22)
(2.00284 0.00855064 -5.51063e-21)
(2.00331 0.00808407 2.24213e-21)
(2.00369 0.00757982 4.34648e-22)
(2.00401 0.00704967 0)
(2.00426 0.00649996 0)
(2.00446 0.00594098 3.98313e-22)
(2.00462 0.00537365 9.44044e-23)
(2.00474 0.00480348 -9.4415e-23)
(2.00483 0.00423236 0)
(2.0049 0.00366192 -8.94368e-23)
(2.00495 0.00309322 8.94507e-23)
(2.00499 0.00252641 0)
(2.00501 0.00196184 0)
(2.00503 0.00139899 8.62025e-23)
(2.00504 0.00083783 -8.62224e-23)
(2.00502 0.000277195 0)
(2.00742 -0.000572246 0)
(2.00736 -0.00171039 0)
(2.00731 -0.00284833 1.54441e-22)
(2.00722 -0.00398614 -1.54354e-22)
(2.0071 -0.00512262 0)
(2.00694 -0.00625652 0)
(2.00674 -0.00738529 -1.59359e-22)
(2.00649 -0.00850531 -2.03452e-24)
(2.00617 -0.00961159 3.24832e-22)
(2.00579 -0.0106973 -1.63521e-22)
(2.00534 -0.011754 -3.38253e-22)
(2.0048 -0.0127704 1.63034e-22)
(2.00416 -0.0137325 3.44763e-22)
(2.00343 -0.0146242 -3.60088e-22)
(2.00258 -0.015426 -2.19187e-21)