/*--------------------------------*- C++ -*----------------------------------*\
  =========                 |
  \\      /  F ield         | OpenFOAM: The Open Source CFD Toolbox
   \\    /   O peration     | Website:  https://openfoam.org
    \\  /    A nd           | Version:  12
     \\/     M anipulation  |
\*---------------------------------------------------------------------------*/
FoamFile
{
    format      ascii;
    class       volScalarField;
    location    "360";
    object      k;
}
// * * * * * * * * * * * * * * * * * * * * * * * * * * * * * * * * * * * * * //

dimensions      [0 2 -2 0 0 0 0];

internalField   nonuniform List<scalar> 
16227
(
0.00914646
0.00914648
0.00914647
0.00914651
0.0091465
0.00914654
0.00914653
0.00914652
0.00914651
0.00914653
0.00914657
0.00914659
0.00914665
0.00914665
0.00914665
0.00914665
0.00914665
0.00914665
0.00914665
0.00914665
0.00914665
0.00914665
0.00914665
0.00914665
0.00914665
0.00914665
0.00914665
0.00914666
0.00914667
0.00914664
0.00914665
0.00914665
0.00914665
0.00914665
0.00914665
0.00914665
0.00914665
0.00914665
0.00914665
0.00914665
0.00914665
0.00914665
0.00914665
0.00914665
0.00914665
0.00914665
0.00914665
0.00914663
0.00914662
0.00914662
0.00914662
0.00914661
0.00914654
0.00914654
0.00914649
0.00914649
0.00914651
0.00914649
0.00914647
0.00914646
0.00848122
0.00848124
0.00848124
0.00848127
0.00848128
0.00848131
0.0084813
0.00848127
0.00848128
0.0084813
0.00848135
0.00848137
0.00848152
0.00848157
0.00848159
0.00848159
0.00848159
0.00848159
0.00848159
0.00848159
0.0084816
0.00848161
0.00848161
0.00848161
0.00848161
0.00848161
0.00848161
0.0084816
0.00848159
0.00848153
0.00848158
0.0084816
0.0084816
0.0084816
0.0084816
0.00848159
0.00848157
0.00848157
0.00848157
0.00848158
0.00848158
0.00848158
0.00848158
0.00848156
0.00848156
0.00848155
0.00848155
0.00848155
0.00848156
0.00848154
0.00848151
0.00848146
0.00848135
0.00848133
0.00848129
0.00848127
0.00848131
0.00848123
0.00848125
0.00848122
0.00790076
0.00790078
0.00790079
0.0079008
0.0079008
0.00790089
0.00790084
0.00790083
0.00790084
0.00790085
0.0079009
0.00790091
0.00790117
0.00790123
0.00790124
0.00790125
0.00790125
0.00790125
0.00790127
0.00790121
0.00790125
0.00790125
0.00790125
0.00790125
0.00790124
0.00790124
0.00790123
0.00790123
0.00790122
0.00790114
0.0079012
0.00790121
0.00790121
0.00790121
0.00790121
0.00790121
0.00790121
0.0079012
0.00790119
0.00790119
0.00790119
0.0079012
0.00790119
0.00790118
0.00790118
0.00790119
0.00790118
0.00790118
0.00790117
0.00790115
0.00790111
0.00790092
0.00790084
0.00790083
0.00790081
0.00790081
0.00790084
0.00790075
0.00790076
0.00790074
0.00739028
0.0073903
0.0073903
0.00739032
0.00739032
0.00739039
0.00739039
0.00739036
0.00739037
0.00739036
0.00739041
0.00739047
0.00739074
0.00739081
0.00739083
0.00739085
0.00739085
0.00739086
0.0073908
0.00739066
0.00739078
0.00739081
0.0073908
0.00739079
0.00739079
0.00739078
0.00739077
0.00739075
0.00739072
0.00739063
0.00739069
0.00739071
0.0073907
0.00739069
0.00739069
0.00739069
0.0073907
0.00739069
0.00739069
0.00739069
0.0073907
0.00739069
0.00739069
0.0073907
0.0073907
0.0073907
0.0073907
0.0073907
0.00739071
0.00739069
0.00739057
0.00739038
0.00739028
0.0073903
0.0073903
0.00739032
0.0073903
0.00739023
0.00739023
0.00739021
0.00693818
0.0069382
0.0069382
0.00693822
0.00693823
0.00693829
0.00693832
0.00693826
0.00693827
0.00693828
0.00693832
0.00693838
0.00693863
0.00693876
0.00693878
0.00693877
0.00693878
0.00693875
0.00693853
0.00693845
0.00693864
0.00693869
0.00693868
0.00693865
0.00693863
0.0069386
0.00693858
0.00693856
0.00693851
0.0069384
0.00693847
0.00693848
0.00693848
0.00693847
0.00693845
0.00693846
0.00693846
0.00693847
0.00693847
0.00693848
0.00693849
0.00693851
0.0069385
0.00693851
0.00693852
0.00693853
0.00693854
0.00693855
0.00693855
0.00693848
0.00693824
0.00693814
0.00693807
0.0069381
0.00693813
0.00693818
0.00693812
0.00693805
0.00693805
0.00693803
0.00653526
0.00653528
0.00653527
0.00653529
0.0065353
0.00653535
0.00653539
0.00653535
0.00653533
0.00653533
0.00653534
0.00653538
0.0065355
0.00653579
0.00653585
0.00653587
0.00653586
0.00653575
0.0065355
0.00653545
0.00653565
0.00653569
0.00653565
0.00653561
0.00653557
0.00653554
0.0065355
0.00653545
0.00653539
0.00653526
0.00653532
0.00653532
0.00653531
0.00653531
0.0065353
0.0065353
0.00653531
0.00653532
0.00653533
0.00653534
0.00653536
0.00653537
0.00653539
0.00653542
0.00653543
0.00653545
0.00653547
0.00653549
0.0065355
0.00653537
0.00653514
0.00653504
0.00653501
0.00653507
0.00653512
0.00653512
0.00653507
0.00653501
0.00653501
0.006535
0.00617411
0.00617413
0.00617413
0.00617414
0.00617414
0.00617419
0.00617424
0.00617422
0.00617419
0.00617419
0.00617418
0.00617418
0.00617429
0.00617455
0.00617468
0.0061747
0.00617465
0.00617435
0.00617421
0.00617419
0.00617439
0.0061744
0.00617434
0.00617428
0.00617422
0.00617416
0.00617409
0.00617404
0.00617396
0.0061738
0.00617386
0.00617385
0.00617383
0.00617382
0.00617382
0.00617382
0.00617382
0.00617385
0.00617387
0.0061739
0.00617392
0.00617396
0.00617399
0.00617402
0.00617406
0.00617409
0.00617412
0.00617415
0.0061741
0.00617385
0.00617374
0.00617367
0.00617369
0.00617377
0.0061738
0.0061738
0.00617376
0.00617371
0.00617372
0.00617371
0.00584874
0.00584874
0.00584874
0.00584877
0.00584876
0.0058488
0.00584885
0.00584885
0.00584881
0.00584878
0.00584876
0.00584873
0.00584878
0.00584891
0.0058492
0.00584927
0.00584919
0.00584883
0.0058487
0.00584866
0.00584885
0.00584885
0.00584876
0.00584867
0.00584857
0.00584849
0.0058484
0.00584831
0.0058482
0.00584803
0.00584807
0.00584806
0.00584803
0.00584801
0.00584801
0.00584801
0.00584803
0.00584806
0.00584809
0.00584813
0.00584819
0.00584822
0.00584828
0.00584833
0.00584839
0.00584843
0.00584848
0.0058485
0.0058484
0.00584817
0.00584808
0.00584807
0.00584814
0.0058482
0.00584821
0.00584822
0.00584819
0.00584815
0.00584817
0.00584815
0.0055542
0.0055542
0.00555421
0.00555422
0.00555422
0.00555425
0.00555429
0.00555429
0.00555429
0.00555424
0.0055542
0.00555415
0.00555416
0.00555426
0.00555459
0.00555467
0.0055545
0.00555415
0.00555402
0.00555396
0.00555412
0.00555408
0.00555396
0.00555384
0.00555371
0.00555359
0.00555347
0.00555335
0.00555322
0.00555302
0.00555304
0.00555301
0.00555298
0.00555296
0.00555295
0.00555296
0.00555299
0.00555303
0.00555308
0.00555313
0.0055532
0.00555328
0.00555334
0.00555341
0.00555348
0.00555356
0.00555361
0.00555359
0.00555336
0.00555327
0.00555323
0.0055533
0.00555335
0.00555342
0.00555344
0.00555346
0.00555345
0.00555341
0.00555342
0.00555342
0.00528643
0.00528644
0.00528643
0.00528645
0.00528644
0.00528647
0.00528651
0.0052865
0.00528649
0.00528648
0.00528642
0.00528634
0.00528635
0.00528644
0.0052867
0.00528677
0.00528643
0.0052862
0.00528608
0.005286
0.00528613
0.00528605
0.0052859
0.00528573
0.00528557
0.00528541
0.00528525
0.00528509
0.00528493
0.0052847
0.00528471
0.00528466
0.00528461
0.00528459
0.00528458
0.0052846
0.00528463
0.00528469
0.00528477
0.00528484
0.00528492
0.00528501
0.00528512
0.00528522
0.00528531
0.00528541
0.00528548
0.00528544
0.00528521
0.00528516
0.00528519
0.00528525
0.00528531
0.00528538
0.00528542
0.00528546
0.00528544
0.00528542
0.00528543
0.00528543
0.00504203
0.00504204
0.00504204
0.00504204
0.00504205
0.00504207
0.0050421
0.00504208
0.00504207
0.00504205
0.00504201
0.00504191
0.00504186
0.00504189
0.00504198
0.00504217
0.00504185
0.00504164
0.0050415
0.00504139
0.00504142
0.00504135
0.00504117
0.00504096
0.00504074
0.00504054
0.00504033
0.00504014
0.00503994
0.00503968
0.00503966
0.0050396
0.00503954
0.00503951
0.00503951
0.00503954
0.00503959
0.00503965
0.00503975
0.00503985
0.00503996
0.00504008
0.00504022
0.00504034
0.00504046
0.00504057
0.00504059
0.00504051
0.00504042
0.0050404
0.00504047
0.00504054
0.00504062
0.00504071
0.00504076
0.00504079
0.00504079
0.00504078
0.0050408
0.0050408
0.00481814
0.00481815
0.00481815
0.00481816
0.00481816
0.00481818
0.00481819
0.00481819
0.00481817
0.00481814
0.00481809
0.00481801
0.00481792
0.0048179
0.00481794
0.00481807
0.00481781
0.0048176
0.0048174
0.00481725
0.00481711
0.0048171
0.00481691
0.00481665
0.00481639
0.00481613
0.00481588
0.00481564
0.0048154
0.00481511
0.00481507
0.00481498
0.00481491
0.00481488
0.00481488
0.00481491
0.00481498
0.00481507
0.00481518
0.00481531
0.00481546
0.00481561
0.00481577
0.00481594
0.00481608
0.00481618
0.00481612
0.00481614
0.00481614
0.00481616
0.00481624
0.00481634
0.00481643
0.00481653
0.00481659
0.00481664
0.00481665
0.00481664
0.00481666
0.00481667
0.00461236
0.00461236
0.00461236
0.00461237
0.00461237
0.00461239
0.0046124
0.00461239
0.00461237
0.00461233
0.00461229
0.0046122
0.00461211
0.004612
0.00461195
0.00461191
0.00461182
0.00461165
0.00461142
0.00461121
0.00461098
0.00461097
0.00461073
0.00461042
0.0046101
0.00460978
0.00460948
0.00460919
0.0046089
0.00460858
0.0046085
0.00460839
0.00460831
0.00460828
0.00460828
0.00460833
0.00460841
0.00460853
0.00460868
0.00460884
0.00460902
0.00460922
0.00460941
0.0046096
0.00460976
0.00460986
0.00460984
0.00460993
0.00460995
0.00461
0.00461011
0.00461023
0.00461034
0.00461044
0.00461052
0.00461057
0.00461059
0.0046106
0.00461062
0.00461063
0.00442261
0.00442263
0.00442262
0.00442263
0.00442263
0.00442264
0.00442265
0.00442264
0.00442262
0.00442258
0.00442252
0.00442243
0.00442233
0.00442222
0.00442208
0.00442201
0.00442194
0.00442175
0.00442149
0.00442123
0.00442095
0.00442088
0.00442058
0.00442021
0.00441982
0.00441944
0.00441907
0.00441873
0.00441839
0.00441802
0.00441791
0.00441778
0.00441769
0.00441765
0.00441766
0.00441773
0.00441784
0.00441798
0.00441816
0.00441837
0.00441859
0.00441882
0.00441905
0.00441927
0.0044194
0.00441948
0.00441961
0.00441973
0.00441979
0.00441989
0.00442002
0.00442015
0.00442028
0.00442039
0.00442049
0.00442055
0.00442058
0.0044206
0.00442063
0.00442063
0.00424715
0.00424717
0.00424717
0.00424717
0.00424717
0.00424719
0.0042472
0.00424718
0.00424716
0.00424711
0.00424705
0.00424696
0.00424685
0.00424672
0.00424658
0.00424647
0.00424638
0.00424615
0.00424584
0.00424553
0.0042452
0.00424506
0.0042447
0.00424425
0.0042438
0.00424335
0.00424291
0.0042425
0.0042421
0.00424169
0.00424154
0.00424139
0.00424129
0.00424125
0.00424127
0.00424135
0.00424149
0.00424168
0.0042419
0.00424215
0.00424241
0.00424269
0.00424296
0.00424317
0.00424326
0.00424345
0.00424363
0.0042438
0.00424391
0.00424404
0.00424421
0.00424436
0.00424451
0.00424464
0.00424474
0.00424482
0.00424486
0.00424489
0.00424492
0.00424492
0.00408446
0.00408447
0.00408448
0.00408448
0.00408448
0.0040845
0.00408451
0.00408449
0.00408447
0.00408443
0.00408436
0.00408426
0.00408414
0.004084
0.00408385
0.00408372
0.00408359
0.00408333
0.00408298
0.00408261
0.00408223
0.00408196
0.00408157
0.00408106
0.00408052
0.00407999
0.00407947
0.00407899
0.00407853
0.00407807
0.00407788
0.0040777
0.00407759
0.00407755
0.00407759
0.0040777
0.00407787
0.0040781
0.00407836
0.00407866
0.00407897
0.0040793
0.00407961
0.00407983
0.00407997
0.00408021
0.00408044
0.00408061
0.00408078
0.00408097
0.00408117
0.00408135
0.00408151
0.00408166
0.00408177
0.00408186
0.00408191
0.00408194
0.00408198
0.00408199
0.00393323
0.00393324
0.00393324
0.00393325
0.00393325
0.00393327
0.00393328
0.00393327
0.00393324
0.0039332
0.00393313
0.00393303
0.00393291
0.00393275
0.00393258
0.00393243
0.00393228
0.00393197
0.00393159
0.00393114
0.00393069
0.00393022
0.00392986
0.00392931
0.00392869
0.00392806
0.00392746
0.0039269
0.00392637
0.00392585
0.00392561
0.00392541
0.00392528
0.00392525
0.00392531
0.00392545
0.00392566
0.00392593
0.00392625
0.0039266
0.00392698
0.00392735
0.00392763
0.00392787
0.00392814
0.00392845
0.00392873
0.00392893
0.00392914
0.00392938
0.0039296
0.0039298
0.00392998
0.00393014
0.00393027
0.00393037
0.00393043
0.00393047
0.00393051
0.00393052
0.0037923
0.00379232
0.00379233
0.00379233
0.00379234
0.00379236
0.00379237
0.00379236
0.00379234
0.0037923
0.00379223
0.00379213
0.003792
0.00379184
0.00379166
0.00379148
0.0037913
0.00379098
0.00379054
0.00379004
0.0037895
0.00378892
0.00378851
0.00378788
0.00378716
0.00378644
0.00378574
0.00378508
0.00378446
0.00378388
0.0037836
0.00378337
0.00378323
0.0037832
0.00378329
0.00378347
0.00378373
0.00378406
0.00378444
0.00378485
0.00378528
0.00378567
0.00378592
0.00378628
0.00378665
0.00378702
0.00378734
0.00378759
0.00378784
0.00378811
0.00378837
0.00378859
0.00378878
0.00378896
0.0037891
0.00378921
0.00378927
0.00378932
0.00378937
0.00378939
0.0036607
0.00366072
0.00366072
0.00366073
0.00366075
0.00366077
0.00366079
0.00366078
0.00366077
0.00366073
0.00366067
0.00366056
0.00366043
0.00366027
0.00366007
0.00365988
0.00365967
0.00365931
0.00365885
0.00365829
0.00365768
0.00365703
0.00365648
0.00365578
0.00365496
0.00365412
0.0036533
0.00365254
0.00365184
0.00365119
0.00365085
0.00365059
0.00365044
0.00365043
0.00365054
0.00365077
0.00365108
0.00365148
0.00365192
0.00365239
0.00365289
0.00365332
0.00365364
0.00365407
0.00365452
0.00365493
0.00365526
0.00365557
0.00365589
0.0036562
0.00365647
0.00365671
0.00365693
0.00365712
0.00365727
0.00365739
0.00365746
0.00365752
0.00365756
0.00365759
0.00353754
0.00353756
0.00353757
0.00353758
0.0035376
0.00353763
0.00353765
0.00353765
0.00353764
0.00353761
0.00353756
0.00353746
0.00353733
0.00353717
0.00353697
0.00353675
0.0035365
0.00353613
0.00353563
0.00353503
0.00353434
0.0035336
0.00353282
0.00353212
0.00353122
0.00353025
0.00352931
0.00352843
0.00352762
0.00352689
0.00352649
0.00352619
0.00352604
0.00352604
0.00352619
0.00352647
0.00352685
0.00352732
0.00352781
0.00352833
0.00352886
0.00352934
0.00352983
0.00353035
0.00353086
0.00353131
0.00353168
0.00353204
0.00353241
0.00353275
0.00353305
0.00353331
0.00353354
0.00353375
0.00353391
0.00353403
0.00353412
0.00353417
0.00353423
0.00353425
0.00342205
0.00342207
0.00342209
0.00342211
0.00342213
0.00342216
0.00342219
0.0034222
0.0034222
0.00342218
0.00342214
0.00342205
0.00342193
0.00342177
0.00342155
0.00342129
0.00342102
0.00342066
0.00342015
0.00341951
0.00341876
0.00341791
0.00341701
0.00341622
0.0034152
0.00341409
0.003413
0.00341198
0.00341105
0.00341022
0.00340975
0.00340942
0.00340926
0.00340929
0.00340948
0.00340983
0.00341028
0.0034108
0.00341138
0.00341198
0.00341252
0.00341311
0.00341373
0.00341435
0.0034149
0.00341537
0.0034158
0.00341624
0.00341665
0.00341701
0.00341734
0.00341762
0.00341787
0.00341808
0.00341825
0.00341838
0.00341847
0.00341854
0.00341859
0.00341862
0.00331355
0.00331358
0.0033136
0.00331362
0.00331365
0.00331369
0.00331373
0.00331375
0.00331377
0.00331376
0.00331372
0.00331365
0.00331355
0.0033134
0.00331318
0.00331292
0.00331262
0.00331227
0.00331173
0.00331105
0.00331025
0.00330934
0.00330834
0.00330741
0.00330628
0.00330501
0.00330375
0.00330256
0.00330149
0.00330055
0.00329999
0.00329961
0.00329945
0.0032995
0.00329974
0.00330016
0.00330067
0.00330128
0.00330195
0.00330266
0.0033033
0.003304
0.00330471
0.00330539
0.00330599
0.0033065
0.003307
0.00330748
0.00330792
0.00330831
0.00330866
0.00330895
0.00330921
0.00330944
0.00330961
0.00330975
0.00330985
0.00330992
0.00330997
0.00331001
0.00321144
0.00321148
0.0032115
0.00321153
0.00321156
0.00321161
0.00321166
0.0032117
0.00321173
0.00321173
0.00321172
0.00321166
0.00321158
0.00321145
0.00321125
0.00321099
0.00321069
0.00321032
0.00320979
0.00320909
0.00320824
0.00320726
0.00320619
0.00320508
0.00320394
0.00320248
0.00320102
0.00319965
0.00319841
0.00319733
0.00319668
0.00319626
0.00319608
0.00319616
0.00319646
0.00319696
0.00319747
0.00319817
0.00319889
0.0031997
0.00320051
0.00320134
0.00320213
0.00320285
0.00320348
0.00320407
0.00320464
0.00320516
0.00320563
0.00320605
0.00320641
0.00320672
0.00320699
0.00320722
0.0032074
0.00320755
0.00320765
0.00320773
0.00320778
0.00320782
0.00311518
0.00311522
0.00311525
0.00311528
0.00311532
0.00311538
0.00311545
0.0031155
0.00311554
0.00311558
0.00311558
0.00311555
0.00311549
0.00311538
0.00311521
0.00311496
0.00311465
0.00311426
0.00311376
0.00311309
0.00311223
0.00311121
0.00311011
0.00310952
0.00315423
0.00315271
0.00315111
0.00314961
0.00314826
0.00314709
0.00314638
0.00314594
0.00314577
0.00314586
0.00314619
0.00314671
0.00310052
0.00310098
0.00310183
0.00310276
0.0031037
0.00310462
0.00310547
0.00310622
0.00310691
0.00310758
0.0031082
0.00310876
0.00310925
0.00310969
0.00311006
0.00311039
0.00311066
0.0031109
0.00311109
0.00311123
0.00311134
0.00311142
0.00311147
0.00311151
0.00302429
0.00302433
0.00302436
0.00302441
0.00302446
0.00302453
0.00302461
0.00302468
0.00302474
0.0030248
0.00302483
0.00302483
0.0030248
0.00302473
0.00302459
0.00302437
0.00302407
0.00302369
0.00302321
0.0030226
0.00302176
0.00302076
0.00302029
0.00306279
0.00305935
0.00305787
0.00305602
0.00305424
0.00305265
0.00305129
0.00305045
0.00304993
0.00304971
0.00304979
0.00305015
0.00305069
0.00305313
0.00300969
0.00301036
0.00301136
0.00301239
0.00301338
0.00301429
0.00301509
0.00301584
0.00301656
0.00301721
0.0030178
0.00301831
0.00301876
0.00301914
0.00301947
0.00301975
0.00301999
0.00302018
0.00302033
0.00302044
0.00302051
0.00302057
0.00302061
0.00293834
0.00293838
0.00293842
0.00293847
0.00293853
0.00293862
0.00293871
0.0029388
0.00293888
0.00293896
0.00293903
0.00293907
0.00293908
0.00293905
0.00293896
0.00293879
0.00293854
0.0029382
0.00293777
0.00293721
0.00293645
0.00293554
0.00293563
0.00297365
0.00297024
0.00299031
0.00298819
0.00298619
0.00298446
0.002983
0.00298214
0.0029816
0.00298135
0.00298137
0.00298165
0.0029606
0.00296255
0.00292344
0.00292406
0.00292508
0.00292616
0.00292719
0.00292812
0.00292899
0.00292982
0.00293058
0.00293125
0.00293185
0.00293237
0.00293283
0.00293322
0.00293355
0.00293383
0.00293407
0.00293426
0.00293441
0.00293451
0.00293459
0.00293464
0.00293469
0.00285694
0.00285699
0.00285703
0.00285708
0.00285716
0.00285726
0.00285737
0.00285747
0.00285759
0.0028577
0.0028578
0.00285787
0.00285793
0.00285796
0.00285793
0.00285783
0.00285766
0.00285739
0.00285702
0.00285655
0.00285592
0.00285525
0.00285595
0.00288983
0.00288641
0.00290475
0.00290208
0.00289984
0.00289813
0.00289689
0.00289623
0.00289581
0.00289545
0.00289517
0.00289488
0.00287567
0.00287722
0.00284201
0.00284259
0.00284357
0.00284465
0.00284569
0.00284667
0.0028476
0.00284847
0.00284925
0.00284994
0.00285054
0.00285107
0.00285152
0.00285191
0.00285224
0.00285252
0.00285275
0.00285294
0.00285308
0.00285319
0.00285326
0.00285331
0.00285336
0.00277974
0.00277979
0.00277984
0.00277991
0.00277999
0.0027801
0.00278023
0.00278036
0.0027805
0.00278064
0.00278078
0.0027809
0.00278101
0.0027811
0.00278115
0.00278114
0.00278108
0.00278092
0.00278067
0.00278033
0.00277988
0.00277964
0.00278103
0.00281117
0.00280795
0.00282546
0.00282188
0.00281988
0.00281867
0.00281803
0.00281781
0.0028173
0.00281639
0.00281528
0.00281418
0.00279515
0.00279723
0.00276514
0.00276562
0.00276653
0.00276756
0.0027686
0.00276962
0.00277058
0.00277146
0.00277223
0.00277292
0.00277352
0.00277404
0.00277449
0.00277487
0.00277519
0.00277546
0.00277569
0.00277587
0.00277601
0.00277611
0.00277618
0.00277623
0.00277627
0.00270643
0.00270649
0.00270654
0.00270661
0.00270671
0.00270683
0.00270698
0.00270713
0.0027073
0.00270748
0.00270765
0.00270783
0.002708
0.00270816
0.0027083
0.0027084
0.00270847
0.00270848
0.00270842
0.00270832
0.00270815
0.00270854
0.00271068
0.00273752
0.00273535
0.00275316
0.00274829
0.00274841
0.0027497
0.00275113
0.00275154
0.0027497
0.0027466
0.00274334
0.00274063
0.00271949
0.00272274
0.00269262
0.00269288
0.00269369
0.00269464
0.00269567
0.00269668
0.00269762
0.00269847
0.00269923
0.00269991
0.00270049
0.00270099
0.00270142
0.00270179
0.0027021
0.00270235
0.00270257
0.00270274
0.00270287
0.00270296
0.00270303
0.00270307
0.00270312
0.00263672
0.00263679
0.00263684
0.00263693
0.00263703
0.00263717
0.00263733
0.00263751
0.0026377
0.00263791
0.00263814
0.00263837
0.00263861
0.00263885
0.00263909
0.00263932
0.00263955
0.00263976
0.00263998
0.00264025
0.00264053
0.00264186
0.00264478
0.00266884
0.00266955
0.00268836
0.00268399
0.00269173
0.00270374
0.00271362
0.00271425
0.00270478
0.00269279
0.00268312
0.00267629
0.00264978
0.00265378
0.00262446
0.00262423
0.00262494
0.00262569
0.00262663
0.00262756
0.00262844
0.00262925
0.00262997
0.00263061
0.00263116
0.00263163
0.00263204
0.00263238
0.00263267
0.00263291
0.00263311
0.00263326
0.00263338
0.00263347
0.00263353
0.00263357
0.00263362
0.00257037
0.00257044
0.0025705
0.00257059
0.0025707
0.00257085
0.00257103
0.00257123
0.00257145
0.0025717
0.00257197
0.00257225
0.00257256
0.00257289
0.00257325
0.00257363
0.00257404
0.00257451
0.00257508
0.00257587
0.00257684
0.00257951
0.00258313
0.00260515
0.00261181
0.0026322
0.00263515
0.00267046
0.00273312
0.00279072
0.00278391
0.00272566
0.0026732
0.00264183
0.00262449
0.00258862
0.00259034
0.00256079
0.00255951
0.00256003
0.00256047
0.00256121
0.002562
0.00256278
0.00256352
0.00256418
0.00256476
0.00256527
0.00256571
0.00256608
0.00256639
0.00256665
0.00256686
0.00256704
0.00256718
0.00256729
0.00256736
0.00256741
0.00256745
0.0025675
0.00250712
0.0025072
0.00250726
0.00250736
0.00250748
0.00250765
0.00250784
0.00250806
0.00250831
0.00250859
0.0025089
0.00250924
0.00250962
0.00251005
0.00251052
0.00251106
0.0025117
0.00251247
0.00251347
0.00251492
0.00251685
0.00252132
0.00252557
0.00254674
0.002563
0.00258605
0.0026188
0.00275439
0.00292726
0.00306029
0.00303669
0.00289582
0.00273597
0.00263188
0.00258912
0.00253947
0.00253244
0.00250197
0.00249862
0.0024987
0.00249871
0.00249918
0.00249979
0.00250043
0.00250105
0.00250163
0.00250214
0.00250259
0.00250298
0.0025033
0.00250358
0.0025038
0.00250399
0.00250414
0.00250426
0.00250435
0.00250441
0.00250446
0.00250449
0.00250453
0.00244678
0.00244686
0.00244693
0.00244703
0.00244716
0.00244734
0.00244754
0.00244778
0.00244806
0.00244837
0.00244872
0.00244911
0.00244956
0.00245008
0.00245069
0.0024514
0.00245227
0.0024534
0.0024549
0.00245716
0.00246033
0.00246701
0.0024716
0.00249376
0.00252336
0.00255299
0.00267015
0.0029469
0.00334103
0.00419148
0.00398742
0.00328339
0.00288937
0.00266657
0.00257175
0.00250555
0.00248069
0.00244807
0.00244142
0.00244069
0.00244019
0.00244031
0.00244067
0.00244113
0.00244162
0.00244209
0.00244251
0.00244289
0.00244321
0.00244349
0.00244371
0.0024439
0.00244406
0.00244418
0.00244428
0.00244436
0.0024444
0.00244443
0.00244446
0.0024445
0.00238914
0.00238923
0.00238929
0.0023894
0.00238954
0.00238972
0.00238994
0.0023902
0.00239049
0.00239083
0.00239122
0.00239167
0.00239218
0.00239279
0.00239352
0.00239441
0.00239554
0.00239704
0.00239911
0.00240231
0.00240695
0.0024162
0.00242066
0.0024457
0.00249188
0.0025351
0.00280333
0.00323607
0.00463962
0.00513632
0.00307577
0.00273465
0.00256953
0.0024866
0.00243571
0.00239911
0.00238784
0.00238574
0.00238465
0.00238436
0.00238443
0.00238467
0.002385
0.00238533
0.00238566
0.00238595
0.0023862
0.00238642
0.0023866
0.00238674
0.00238686
0.00238696
0.00238704
0.00238709
0.00238712
0.00238715
0.00238717
0.00238721
0.00233403
0.00233412
0.00233419
0.0023343
0.00233445
0.00233464
0.00233486
0.00233513
0.00233545
0.00233581
0.00233623
0.00233672
0.0023373
0.00233799
0.00233883
0.00233989
0.00234128
0.00234317
0.00234586
0.00235005
0.00235644
0.00236831
0.00237252
0.00240146
0.00246888
0.00252399
0.00297663
0.00351209
0.00685736
0.0689327
0.0138558
0.00325917
0.0028089
0.00257759
0.00247889
0.00239806
0.00235487
0.00233782
0.00233372
0.00233193
0.00233119
0.00233092
0.00233091
0.00233105
0.00233124
0.00233144
0.00233163
0.00233181
0.00233195
0.00233208
0.00233218
0.00233226
0.00233232
0.00233237
0.0023324
0.00233242
0.00233243
0.00233244
0.00233248
0.00228129
0.00228138
0.00228145
0.00228156
0.00228171
0.00228191
0.00228214
0.00228242
0.00228275
0.00228313
0.00228357
0.0022841
0.00228472
0.00228549
0.00228644
0.00228766
0.00228929
0.00229156
0.00229489
0.00230007
0.00230839
0.00232276
0.00232762
0.00236092
0.00245479
0.00250746
0.00322106
0.00397957
0.031778
0.0676923
0.0831712
0.148851
0.00569754
0.00291515
0.00259338
0.00247643
0.00236705
0.00231474
0.00229108
0.00228434
0.00228178
0.00228054
0.00227992
0.00227965
0.00227958
0.0022796
0.00227967
0.00227976
0.00227984
0.00227991
0.00227998
0.00228002
0.00228006
0.00228008
0.0022801
0.00228011
0.00228011
0.0022801
0.00228011
0.00228015
0.00223076
0.00223086
0.00223093
0.00223104
0.00223119
0.00223139
0.00223163
0.00223191
0.00223224
0.00223264
0.0022331
0.00223365
0.00223432
0.00223514
0.00223618
0.00223754
0.00223939
0.002242
0.00224593
0.00225205
0.00226238
0.0022791
0.00228646
0.00232416
0.00244941
0.00249293
0.00351346
0.00489933
0.016268
0.0663085
0.0565127
0.618908
0.017011
0.00306933
0.00260747
0.00247152
0.00234052
0.00227787
0.00224724
0.00223737
0.00223394
0.00223221
0.00223123
0.00223068
0.00223039
0.00223024
0.00223018
0.00223015
0.00223014
0.00223013
0.00223012
0.00223012
0.0022301
0.00223009
0.00223008
0.00223006
0.00223004
0.00223002
0.00223001
0.00223006
0.00218232
0.00218241
0.00218249
0.0021826
0.00218275
0.00218295
0.00218318
0.00218347
0.00218381
0.0021842
0.00218468
0.00218524
0.00218593
0.00218679
0.0021879
0.00218935
0.00219137
0.00219425
0.00219876
0.00220574
0.00221809
0.00223711
0.00224963
0.00229236
0.00244878
0.00250805
0.0037075
0.00560454
0.00909859
0.0312492
0.0374791
0.482876
0.0246663
0.00328862
0.00260772
0.00245785
0.00231576
0.00224338
0.00220589
0.00219256
0.00218822
0.00218601
0.00218467
0.00218384
0.00218333
0.00218301
0.0021828
0.00218265
0.00218254
0.00218246
0.00218238
0.00218232
0.00218226
0.00218221
0.00218216
0.00218212
0.00218208
0.00218204
0.00218203
0.00218206
0.00213583
0.00213593
0.002136
0.00213611
0.00213626
0.00213645
0.00213669
0.00213697
0.00213731
0.0021377
0.00213817
0.00213874
0.00213944
0.00214031
0.00214144
0.00214294
0.00214508
0.00214825
0.00215328
0.00216105
0.0021752
0.00219669
0.00221738
0.00226729
0.00244589
0.0025629
0.00369332
0.0056518
0.00797008
0.0153565
0.0228519
0.314322
0.0292156
0.00347244
0.00259711
0.00243364
0.00229066
0.00221053
0.00216661
0.00214969
0.0021444
0.00214173
0.00214006
0.00213897
0.00213825
0.00213775
0.00213739
0.00213713
0.00213692
0.00213676
0.00213661
0.00213649
0.00213638
0.00213629
0.00213621
0.00213615
0.00213609
0.00213604
0.00213601
0.00213604
0.00209119
0.00209128
0.00209136
0.00209146
0.00209161
0.00209179
0.00209203
0.0020923
0.00209263
0.00209302
0.00209348
0.00209404
0.00209472
0.00209555
0.00209668
0.00209825
0.00210053
0.00210392
0.00210937
0.00211788
0.00213346
0.0021578
0.00218992
0.00225083
0.00243764
0.00263151
0.00352846
0.00534353
0.00751223
0.0101858
0.0152713
0.228757
0.033076
0.00360662
0.00257557
0.00240077
0.00226452
0.00217875
0.00212905
0.00210855
0.0021023
0.00209918
0.00209723
0.0020959
0.00209499
0.00209433
0.00209384
0.00209346
0.00209315
0.00209291
0.0020927
0.00209252
0.00209236
0.00209223
0.00209212
0.00209203
0.00209195
0.00209188
0.00209185
0.00209187
0.00204828
0.00204838
0.00204844
0.00204855
0.00204869
0.00204887
0.00204909
0.00204935
0.00204967
0.00205004
0.00205048
0.00205101
0.00205165
0.00205248
0.00205362
0.00205524
0.00205759
0.00206114
0.00206691
0.00207611
0.00209275
0.00212044
0.00216747
0.00224522
0.0024294
0.00269839
0.00332138
0.00484754
0.00679651
0.00829846
0.0121073
0.196637
0.0340263
0.00364703
0.00254982
0.00236176
0.00223579
0.00214751
0.00209296
0.00206901
0.00206184
0.00205834
0.0020561
0.00205452
0.00205343
0.00205261
0.002052
0.00205151
0.00205112
0.00205079
0.00205051
0.00205028
0.00205008
0.00204991
0.00204977
0.00204965
0.00204955
0.00204947
0.00204942
0.00204945
0.002007
0.0020071
0.00200717
0.00200727
0.0020074
0.00200757
0.00200779
0.00200804
0.00200833
0.00200868
0.00200907
0.00200955
0.00201019
0.00201102
0.00201216
0.00201377
0.00201614
0.00201981
0.0020258
0.00203571
0.00205309
0.00208464
0.00215022
0.0022532
0.00243253
0.00278585
0.00325891
0.00472186
0.00652579
0.00746562
0.0191005
0.206385
0.0324945
0.00358086
0.0025231
0.00231979
0.00220518
0.00211637
0.00205787
0.00203094
0.00202289
0.00201901
0.00201654
0.00201472
0.00201343
0.00201247
0.00201176
0.00201118
0.0020107
0.0020103
0.00200996
0.00200968
0.00200943
0.00200923
0.00200905
0.00200891
0.00200879
0.0020087
0.00200864
0.00200866
0.00196728
0.00196738
0.00196744
0.00196753
0.00196766
0.00196782
0.00196802
0.00196826
0.00196853
0.00196883
0.00196919
0.00196967
0.00197028
0.00197109
0.00197219
0.00197378
0.00197614
0.00197988
0.00198601
0.0019966
0.00201457
0.00205041
0.00213809
0.00227917
0.00247737
0.00290729
0.00341755
0.00430023
0.00626303
0.0112625
0.0267445
0.217733
0.0289257
0.00346608
0.00250102
0.00227875
0.00217318
0.00208509
0.00202354
0.00199412
0.00198535
0.00198109
0.00197842
0.00197641
0.00197495
0.00197385
0.00197302
0.00197236
0.00197181
0.00197135
0.00197095
0.00197061
0.00197033
0.00197009
0.00196988
0.00196971
0.00196958
0.00196947
0.00196941
0.00196943
0.00192902
0.00192911
0.00192917
0.00192926
0.00192938
0.00192953
0.00192971
0.00192992
0.00193016
0.00193044
0.0019308
0.00193125
0.00193183
0.00193259
0.00193365
0.0019352
0.00193753
0.00194131
0.00194752
0.00195874
0.00197739
0.00201721
0.00213031
0.00232202
0.00260477
0.00305009
0.00400865
0.00609301
0.0107201
0.0139555
0.0436567
0.212925
0.0241271
0.00331426
0.00248612
0.00224203
0.00214028
0.00205351
0.0019898
0.00195839
0.0019491
0.00194452
0.00194162
0.00193945
0.00193786
0.00193664
0.0019357
0.00193495
0.00193435
0.00193383
0.00193338
0.001933
0.00193267
0.0019324
0.00193217
0.00193198
0.00193182
0.0019317
0.00193163
0.00193165
0.00189214
0.00189224
0.00189229
0.00189237
0.00189248
0.00189262
0.00189277
0.00189295
0.00189318
0.00189346
0.00189379
0.00189421
0.00189475
0.00189547
0.00189647
0.00189798
0.00190026
0.00190406
0.00191033
0.00192206
0.00194169
0.00198524
0.0021263
0.00238013
0.00274612
0.00479556
0.00806988
0.00952714
0.0115978
0.0181341
0.072612
0.189777
0.0191472
0.00315211
0.00247392
0.00221131
0.00210726
0.00202156
0.00195648
0.00192369
0.00191398
0.00190921
0.00190613
0.00190377
0.00190204
0.00190071
0.00189971
0.00189889
0.00189822
0.00189766
0.00189717
0.00189674
0.00189638
0.00189608
0.00189582
0.00189561
0.00189544
0.00189531
0.00189523
0.00189524