/*--------------------------------*- C++ -*----------------------------------*\
  =========                 |
  \\      /  F ield         | OpenFOAM: The Open Source CFD Toolbox
   \\    /   O peration     | Website:  https://openfoam.org
    \\  /    A nd           | Version:  12
     \\/     M anipulation  |
\*---------------------------------------------------------------------------*/
FoamFile
{
    format      ascii;
    class       volScalarField;
    location    "360";
    object      nut;
}
// * * * * * * * * * * * * * * * * * * * * * * * * * * * * * * * * * * * * * //

dimensions      [0 2 -1 0 0 0 0];

internalField   nonuniform List<scalar> 
16227
(
0.000978543
0.000978543
0.000978543
0.000978543
0.000978543
0.000978543
0.000978543
0.000978543
0.000978543
0.000978543
0.000978543
0.000978543
0.000978544
0.000978544
0.000978544
0.000978544
0.000978544
0.000978544
0.000978544
0.000978544
0.000978544
0.000978544
0.000978544
0.000978544
0.000978544
0.000978544
0.000978544
0.000978544
0.000978544
0.000978544
0.000978544
0.000978544
0.000978544
0.000978544
0.000978544
0.000978544
0.000978544
0.000978544
0.000978544
0.000978544
0.000978544
0.000978544
0.000978544
0.000978544
0.000978544
0.000978544
0.000978544
0.000978544
0.000978544
0.000978544
0.000978544
0.000978543
0.000978543
0.000978543
0.000978543
0.000978543
0.000978543
0.000978543
0.000978543
0.000978543
0.000972834
0.000972834
0.000972834
0.000972834
0.000972834
0.000972834
0.000972834
0.000972834
0.000972834
0.000972834
0.000972835
0.000972835
0.000972836
0.000972837
0.000972837
0.000972837
0.000972837
0.000972837
0.000972837
0.000972837
0.000972837
0.000972837
0.000972837
0.000972837
0.000972837
0.000972837
0.000972837
0.000972837
0.000972837
0.000972836
0.000972837
0.000972837
0.000972837
0.000972837
0.000972837
0.000972837
0.000972836
0.000972836
0.000972836
0.000972836
0.000972836
0.000972836
0.000972836
0.000972836
0.000972836
0.000972836
0.000972836
0.000972836
0.000972836
0.000972836
0.000972836
0.000972836
0.000972835
0.000972835
0.000972834
0.000972834
0.000972835
0.000972834
0.000972834
0.000972834
0.000967494
0.000967494
0.000967494
0.000967494
0.000967494
0.000967495
0.000967495
0.000967495
0.000967495
0.000967495
0.000967495
0.000967496
0.000967498
0.000967498
0.000967498
0.000967499
0.000967499
0.000967499
0.000967499
0.000967498
0.000967499
0.000967499
0.000967499
0.000967499
0.000967499
0.000967499
0.000967498
0.000967498
0.000967498
0.000967498
0.000967498
0.000967498
0.000967498
0.000967498
0.000967498
0.000967498
0.000967498
0.000967498
0.000967498
0.000967498
0.000967498
0.000967498
0.000967498
0.000967498
0.000967498
0.000967498
0.000967498
0.000967498
0.000967498
0.000967497
0.000967497
0.000967495
0.000967495
0.000967495
0.000967495
0.000967495
0.000967495
0.000967494
0.000967494
0.000967494
0.000962482
0.000962482
0.000962482
0.000962482
0.000962482
0.000962482
0.000962483
0.000962482
0.000962482
0.000962482
0.000962483
0.000962484
0.000962486
0.000962487
0.000962487
0.000962487
0.000962487
0.000962488
0.000962487
0.000962486
0.000962487
0.000962487
0.000962487
0.000962487
0.000962487
0.000962487
0.000962487
0.000962486
0.000962486
0.000962485
0.000962486
0.000962486
0.000962486
0.000962485
0.000962485
0.000962485
0.000962485
0.000962485
0.000962485
0.000962485
0.000962485
0.000962485
0.000962485
0.000962485
0.000962485
0.000962485
0.000962485
0.000962485
0.000962485
0.000962485
0.000962484
0.000962482
0.000962481
0.000962482
0.000962482
0.000962482
0.000962482
0.000962481
0.000962481
0.000962481
0.000957761
0.000957761
0.000957761
0.000957761
0.000957761
0.000957762
0.000957762
0.000957762
0.000957762
0.000957762
0.000957762
0.000957763
0.000957766
0.000957767
0.000957767
0.000957767
0.000957767
0.000957767
0.000957765
0.000957764
0.000957766
0.000957767
0.000957767
0.000957766
0.000957766
0.000957766
0.000957766
0.000957765
0.000957765
0.000957764
0.000957764
0.000957764
0.000957764
0.000957764
0.000957764
0.000957764
0.000957764
0.000957764
0.000957764
0.000957764
0.000957764
0.000957764
0.000957764
0.000957764
0.000957764
0.000957764
0.000957764
0.000957764
0.000957764
0.000957763
0.000957761
0.00095776
0.00095776
0.00095776
0.00095776
0.000957761
0.00095776
0.000957759
0.000957759
0.000957759
0.000953302
0.000953302
0.000953302
0.000953302
0.000953302
0.000953303
0.000953304
0.000953303
0.000953303
0.000953303
0.000953303
0.000953304
0.000953305
0.000953308
0.000953309
0.000953309
0.000953309
0.000953308
0.000953305
0.000953305
0.000953307
0.000953308
0.000953307
0.000953307
0.000953306
0.000953306
0.000953305
0.000953305
0.000953304
0.000953303
0.000953303
0.000953303
0.000953303
0.000953303
0.000953303
0.000953302
0.000953302
0.000953302
0.000953302
0.000953303
0.000953303
0.000953303
0.000953303
0.000953303
0.000953303
0.000953304
0.000953304
0.000953304
0.000953304
0.000953303
0.0009533
0.000953299
0.000953299
0.0009533
0.0009533
0.0009533
0.0009533
0.000953299
0.000953299
0.000953299
0.000949079
0.000949079
0.000949079
0.00094908
0.00094908
0.00094908
0.000949081
0.000949081
0.00094908
0.000949081
0.00094908
0.000949081
0.000949082
0.000949085
0.000949087
0.000949087
0.000949086
0.000949083
0.000949081
0.000949081
0.000949084
0.000949084
0.000949083
0.000949083
0.000949082
0.000949081
0.00094908
0.000949079
0.000949078
0.000949077
0.000949077
0.000949077
0.000949077
0.000949076
0.000949076
0.000949076
0.000949076
0.000949076
0.000949076
0.000949077
0.000949077
0.000949077
0.000949077
0.000949078
0.000949078
0.000949078
0.000949079
0.000949079
0.000949079
0.000949076
0.000949074
0.000949074
0.000949074
0.000949075
0.000949075
0.000949075
0.000949075
0.000949074
0.000949075
0.000949074
0.000945071
0.000945071
0.000945071
0.000945071
0.000945071
0.000945071
0.000945072
0.000945072
0.000945072
0.000945072
0.000945071
0.000945071
0.000945072
0.000945073
0.000945077
0.000945078
0.000945077
0.000945073
0.000945071
0.000945071
0.000945073
0.000945073
0.000945072
0.000945071
0.00094507
0.000945069
0.000945068
0.000945067
0.000945065
0.000945063
0.000945064
0.000945063
0.000945063
0.000945062
0.000945062
0.000945062
0.000945062
0.000945062
0.000945063
0.000945063
0.000945064
0.000945064
0.000945065
0.000945065
0.000945066
0.000945066
0.000945067
0.000945067
0.000945066
0.000945063
0.000945062
0.000945062
0.000945063
0.000945063
0.000945064
0.000945064
0.000945063
0.000945063
0.000945063
0.000945063
0.000941256
0.000941256
0.000941257
0.000941257
0.000941257
0.000941257
0.000941258
0.000941258
0.000941258
0.000941257
0.000941257
0.000941256
0.000941257
0.000941258
0.000941262
0.000941264
0.000941262
0.000941257
0.000941256
0.000941255
0.000941257
0.000941257
0.000941255
0.000941254
0.000941252
0.000941251
0.000941249
0.000941247
0.000941246
0.000941243
0.000941243
0.000941243
0.000941242
0.000941242
0.000941241
0.000941241
0.000941241
0.000941242
0.000941242
0.000941243
0.000941244
0.000941244
0.000941245
0.000941246
0.000941247
0.000941248
0.000941248
0.000941248
0.000941245
0.000941244
0.000941243
0.000941244
0.000941245
0.000941246
0.000941246
0.000941247
0.000941246
0.000941246
0.000941246
0.000941246
0.00093762
0.00093762
0.00093762
0.00093762
0.00093762
0.000937621
0.000937621
0.000937621
0.000937621
0.000937621
0.000937621
0.00093762
0.00093762
0.000937621
0.000937625
0.000937626
0.000937622
0.000937619
0.000937617
0.000937616
0.000937618
0.000937617
0.000937615
0.000937613
0.000937611
0.000937609
0.000937607
0.000937605
0.000937602
0.000937599
0.000937599
0.000937598
0.000937598
0.000937597
0.000937597
0.000937597
0.000937597
0.000937598
0.000937598
0.000937599
0.0009376
0.000937601
0.000937602
0.000937604
0.000937605
0.000937606
0.000937607
0.000937606
0.000937603
0.000937602
0.000937603
0.000937604
0.000937605
0.000937605
0.000937606
0.000937606
0.000937606
0.000937606
0.000937606
0.000937606
0.000934147
0.000934147
0.000934147
0.000934147
0.000934147
0.000934147
0.000934148
0.000934148
0.000934148
0.000934148
0.000934147
0.000934146
0.000934145
0.000934146
0.000934147
0.00093415
0.000934146
0.000934143
0.000934141
0.00093414
0.000934141
0.00093414
0.000934138
0.000934135
0.000934132
0.000934129
0.000934126
0.000934123
0.000934121
0.000934117
0.000934117
0.000934116
0.000934115
0.000934114
0.000934114
0.000934114
0.000934114
0.000934115
0.000934116
0.000934117
0.000934118
0.00093412
0.000934122
0.000934123
0.000934125
0.000934126
0.000934126
0.000934125
0.000934124
0.000934123
0.000934124
0.000934125
0.000934126
0.000934128
0.000934128
0.000934129
0.000934129
0.000934129
0.000934129
0.000934129
0.000930823
0.000930823
0.000930823
0.000930823
0.000930824
0.000930824
0.000930824
0.000930825
0.000930824
0.000930824
0.000930823
0.000930823
0.000930821
0.000930821
0.000930822
0.000930824
0.000930821
0.000930818
0.000930815
0.000930813
0.000930811
0.000930811
0.000930809
0.000930805
0.000930802
0.000930798
0.000930794
0.000930791
0.000930787
0.000930783
0.000930783
0.000930781
0.00093078
0.000930779
0.000930779
0.000930779
0.00093078
0.000930781
0.000930782
0.000930784
0.000930786
0.000930787
0.000930789
0.000930792
0.000930793
0.000930795
0.000930794
0.000930794
0.000930794
0.000930794
0.000930795
0.000930796
0.000930798
0.000930799
0.0009308
0.000930801
0.000930801
0.000930801
0.000930801
0.000930801
0.000927638
0.000927638
0.000927638
0.000927638
0.000927639
0.000927639
0.000927639
0.000927639
0.000927639
0.000927639
0.000927638
0.000927637
0.000927636
0.000927634
0.000927634
0.000927633
0.000927632
0.00092763
0.000927627
0.000927624
0.000927621
0.000927621
0.000927618
0.000927613
0.000927609
0.000927604
0.0009276
0.000927596
0.000927591
0.000927587
0.000927585
0.000927584
0.000927582
0.000927582
0.000927581
0.000927582
0.000927583
0.000927584
0.000927586
0.000927588
0.00092759
0.000927593
0.000927595
0.000927598
0.0009276
0.000927601
0.0009276
0.000927601
0.000927602
0.000927602
0.000927604
0.000927605
0.000927607
0.000927609
0.00092761
0.000927611
0.000927611
0.000927611
0.000927611
0.000927612
0.000924581
0.000924581
0.000924581
0.000924581
0.000924581
0.000924582
0.000924582
0.000924582
0.000924582
0.000924581
0.000924581
0.000924579
0.000924578
0.000924577
0.000924575
0.000924574
0.000924573
0.000924571
0.000924567
0.000924563
0.000924559
0.000924558
0.000924554
0.000924549
0.000924543
0.000924538
0.000924532
0.000924527
0.000924522
0.000924517
0.000924515
0.000924513
0.000924511
0.00092451
0.00092451
0.000924511
0.000924512
0.000924514
0.000924516
0.000924519
0.000924521
0.000924525
0.000924528
0.000924531
0.000924532
0.000924533
0.000924535
0.000924536
0.000924537
0.000924538
0.00092454
0.000924542
0.000924544
0.000924546
0.000924547
0.000924548
0.000924549
0.000924549
0.00092455
0.00092455
0.000921642
0.000921643
0.000921643
0.000921643
0.000921643
0.000921643
0.000921643
0.000921644
0.000921643
0.000921643
0.000921642
0.000921641
0.000921639
0.000921637
0.000921636
0.000921634
0.000921633
0.00092163
0.000921626
0.000921621
0.000921616
0.000921614
0.000921609
0.000921603
0.000921596
0.000921589
0.000921583
0.000921577
0.000921571
0.000921564
0.000921562
0.00092156
0.000921558
0.000921557
0.000921557
0.000921558
0.000921559
0.000921561
0.000921564
0.000921567
0.000921571
0.000921575
0.000921578
0.000921581
0.000921582
0.000921584
0.000921587
0.000921589
0.000921591
0.000921593
0.000921595
0.000921598
0.0009216
0.000921602
0.000921603
0.000921605
0.000921605
0.000921606
0.000921606
0.000921606
0.000918814
0.000918814
0.000918814
0.000918815
0.000918815
0.000918815
0.000918816
0.000918816
0.000918815
0.000918815
0.000918814
0.000918813
0.000918811
0.000918809
0.000918807
0.000918805
0.000918804
0.0009188
0.000918795
0.000918789
0.000918784
0.00091878
0.000918774
0.000918767
0.000918759
0.000918751
0.000918743
0.000918736
0.000918729
0.000918722
0.000918719
0.000918716
0.000918714
0.000918713
0.000918713
0.000918714
0.000918716
0.000918719
0.000918722
0.000918726
0.00091873
0.000918735
0.000918739
0.000918742
0.000918743
0.000918747
0.00091875
0.000918752
0.000918755
0.000918758
0.000918761
0.000918763
0.000918766
0.000918768
0.00091877
0.000918772
0.000918772
0.000918773
0.000918773
0.000918774
0.000916089
0.000916089
0.000916089
0.000916089
0.00091609
0.00091609
0.00091609
0.000916091
0.000916091
0.00091609
0.000916089
0.000916088
0.000916086
0.000916084
0.000916082
0.00091608
0.000916078
0.000916073
0.000916068
0.000916061
0.000916054
0.000916047
0.000916042
0.000916034
0.000916025
0.000916016
0.000916007
0.000915998
0.00091599
0.000915982
0.000915978
0.000915975
0.000915973
0.000915971
0.000915972
0.000915973
0.000915976
0.000915979
0.000915983
0.000915987
0.000915993
0.000915998
0.000916001
0.000916004
0.000916008
0.000916012
0.000916016
0.000916019
0.000916022
0.000916026
0.000916029
0.000916032
0.000916035
0.000916038
0.00091604
0.000916041
0.000916042
0.000916043
0.000916044
0.000916044
0.000913459
0.00091346
0.00091346
0.00091346
0.00091346
0.000913461
0.000913462
0.000913462
0.000913462
0.000913462
0.000913461
0.00091346
0.000913458
0.000913456
0.000913453
0.000913451
0.000913449
0.000913444
0.000913437
0.00091343
0.000913422
0.000913413
0.000913408
0.000913399
0.000913388
0.000913378
0.000913367
0.000913357
0.000913348
0.000913339
0.000913335
0.000913331
0.000913328
0.000913327
0.000913327
0.000913329
0.000913331
0.000913335
0.00091334
0.000913345
0.000913351
0.000913356
0.000913359
0.000913364
0.000913369
0.000913374
0.000913379
0.000913382
0.000913386
0.00091339
0.000913394
0.000913398
0.000913401
0.000913404
0.000913406
0.000913408
0.000913409
0.00091341
0.00091341
0.000913411
0.00091092
0.00091092
0.000910921
0.000910921
0.000910921
0.000910922
0.000910923
0.000910923
0.000910923
0.000910923
0.000910923
0.000910922
0.00091092
0.000910918
0.000910915
0.000910913
0.00091091
0.000910906
0.000910899
0.000910891
0.000910882
0.000910872
0.000910865
0.000910856
0.000910844
0.000910832
0.000910821
0.000910809
0.000910799
0.000910789
0.000910783
0.000910778
0.000910775
0.000910773
0.000910773
0.000910775
0.000910779
0.000910783
0.000910788
0.000910794
0.0009108
0.000910806
0.000910809
0.000910815
0.000910821
0.000910827
0.000910832
0.000910836
0.000910841
0.000910846
0.00091085
0.000910854
0.000910857
0.00091086
0.000910863
0.000910865
0.000910866
0.000910867
0.000910867
0.000910868
0.000908464
0.000908465
0.000908466
0.000908466
0.000908466
0.000908467
0.000908468
0.000908469
0.000908469
0.00090847
0.000908469
0.000908468
0.000908467
0.000908465
0.000908463
0.00090846
0.000908458
0.000908453
0.000908446
0.000908438
0.000908428
0.000908418
0.000908408
0.0009084
0.000908389
0.000908376
0.000908363
0.000908351
0.000908339
0.000908327
0.00090832
0.000908314
0.00090831
0.000908307
0.000908307
0.000908309
0.000908312
0.000908317
0.000908322
0.000908328
0.000908334
0.000908339
0.000908345
0.000908352
0.000908359
0.000908365
0.00090837
0.000908375
0.000908381
0.000908386
0.000908391
0.000908395
0.000908399
0.000908402
0.000908405
0.000908407
0.000908408
0.000908409
0.00090841
0.00090841
0.000906088
0.000906089
0.00090609
0.00090609
0.000906091
0.000906092
0.000906093
0.000906094
0.000906095
0.000906095
0.000906096
0.000906095
0.000906094
0.000906093
0.000906091
0.000906088
0.000906085
0.000906082
0.000906075
0.000906068
0.000906058
0.000906048
0.000906038
0.000906032
0.000906021
0.000906008
0.000905994
0.00090598
0.000905967
0.000905954
0.000905945
0.000905937
0.00090593
0.000905927
0.000905925
0.000905927
0.00090593
0.000905934
0.000905939
0.000905945
0.000905949
0.000905955
0.000905963
0.000905971
0.000905978
0.000905984
0.00090599
0.000905996
0.000906002
0.000906008
0.000906013
0.000906017
0.000906021
0.000906024
0.000906027
0.000906029
0.00090603
0.000906031
0.000906032
0.000906033
0.000903786
0.000903787
0.000903788
0.000903789
0.00090379
0.000903791
0.000903792
0.000903794
0.000903795
0.000903796
0.000903797
0.000903797
0.000903797
0.000903796
0.000903795
0.000903792
0.000903791
0.000903788
0.000903783
0.000903776
0.000903768
0.00090376
0.000903753
0.000903749
0.000903743
0.000903731
0.000903718
0.000903703
0.000903688
0.000903672
0.00090366
0.000903648
0.000903638
0.00090363
0.000903627
0.000903626
0.000903629
0.000903633
0.000903637
0.000903641
0.000903645
0.000903652
0.000903659
0.000903667
0.000903674
0.00090368
0.000903686
0.000903693
0.000903699
0.000903705
0.00090371
0.000903715
0.000903719
0.000903722
0.000903725
0.000903727
0.000903728
0.000903729
0.00090373
0.000903731
0.000901554
0.000901556
0.000901556
0.000901557
0.000901558
0.00090156
0.000901562
0.000901564
0.000901566
0.000901567
0.000901569
0.00090157
0.000901571
0.000901571
0.000901571
0.00090157
0.000901569
0.000901568
0.000901566
0.000901562
0.000901557
0.000901553
0.000901552
0.000901556
0.000901561
0.000901551
0.000901539
0.000901526
0.00090151
0.000901491
0.000901474
0.000901456
0.00090144
0.000901426
0.000901418
0.000901415
0.000901412
0.000901413
0.000901412
0.000901414
0.000901418
0.000901424
0.00090143
0.000901437
0.000901443
0.000901449
0.000901456
0.000901463
0.000901469
0.000901475
0.00090148
0.000901484
0.000901488
0.000901492
0.000901494
0.000901496
0.000901498
0.000901499
0.0009015
0.000901501
0.000899389
0.00089939
0.000899391
0.000899392
0.000899394
0.000899395
0.000899398
0.0008994
0.000899403
0.000899405
0.000899408
0.00089941
0.000899412
0.000899414
0.000899415
0.000899416
0.000899417
0.000899419
0.00089942
0.000899421
0.000899422
0.000899426
0.000899438
0.000899473
0.00090047
0.000900466
0.000900455
0.000900442
0.000900426
0.000900407
0.000900389
0.000900369
0.000900349
0.000900331
0.000900318
0.00090031
0.000899294
0.00089928
0.000899272
0.000899267
0.000899267
0.000899269
0.000899274
0.000899278
0.000899283
0.000899289
0.000899296
0.000899302
0.000899308
0.000899313
0.000899318
0.000899322
0.000899326
0.000899329
0.000899332
0.000899334
0.000899335
0.000899336
0.000899337
0.000899338
0.000897285
0.000897287
0.000897288
0.000897289
0.000897291
0.000897293
0.000897296
0.000897299
0.000897303
0.000897306
0.00089731
0.000897313
0.000897317
0.000897321
0.000897325
0.000897328
0.000897332
0.000897338
0.000897345
0.000897354
0.000897364
0.000897381
0.000897434
0.000898423
0.000898368
0.000898396
0.000898397
0.000898393
0.000898384
0.000898366
0.000898343
0.000898311
0.000898274
0.000898235
0.000898203
0.000898186
0.000898229
0.000897245
0.000897221
0.000897201
0.000897192
0.000897188
0.000897188
0.000897189
0.000897192
0.000897197
0.000897202
0.000897207
0.000897213
0.000897217
0.000897222
0.000897225
0.000897229
0.000897231
0.000897234
0.000897235
0.000897236
0.000897237
0.000897238
0.000897239
0.00089524
0.000895242
0.000895243
0.000895245
0.000895247
0.00089525
0.000895254
0.000895257
0.000895262
0.000895266
0.000895271
0.000895277
0.000895282
0.000895289
0.000895296
0.000895303
0.000895313
0.000895324
0.000895339
0.000895359
0.000895384
0.000895423
0.000895523
0.000896407
0.000896374
0.000896922
0.000896927
0.000896936
0.000896946
0.000896946
0.000896932
0.000896897
0.000896839
0.000896768
0.0008967
0.000896207
0.00089619
0.000895293
0.000895265
0.000895218
0.000895193
0.000895179
0.00089517
0.000895167
0.000895167
0.000895169
0.000895173
0.000895176
0.00089518
0.000895184
0.000895187
0.00089519
0.000895193
0.000895195
0.000895197
0.000895198
0.000895199
0.0008952
0.0008952
0.000895201
0.000893251
0.000893253
0.000893255
0.000893257
0.000893259
0.000893263
0.000893267
0.000893271
0.000893277
0.000893283
0.000893289
0.000893297
0.000893305
0.000893315
0.000893326
0.000893339
0.000893355
0.000893375
0.000893401
0.000893437
0.000893484
0.000893564
0.000893722
0.000894511
0.000894493
0.0008951
0.000895077
0.000895139
0.000895234
0.000895324
0.000895377
0.000895357
0.000895248
0.000895079
0.000894882
0.000894319
0.000894288
0.000893433
0.000893406
0.000893321
0.000893272
0.000893241
0.000893222
0.000893212
0.000893207
0.000893205
0.000893205
0.000893206
0.000893208
0.00089321
0.000893212
0.000893214
0.000893216
0.000893217
0.000893219
0.00089322
0.00089322
0.00089322
0.000893221
0.000893222
0.000891315
0.000891317
0.000891319
0.000891321
0.000891324
0.000891328
0.000891333
0.000891339
0.000891345
0.000891352
0.000891361
0.000891371
0.000891382
0.000891396
0.000891412
0.000891432
0.000891457
0.00089149
0.000891533
0.000891592
0.00089167
0.000891819
0.000892055
0.000892761
0.000892811
0.000893652
0.000893553
0.000893778
0.000894078
0.000894357
0.000894518
0.000894455
0.000894183
0.000893795
0.000893368
0.000892492
0.000892579
0.000891673
0.000891644
0.000891515
0.00089143
0.000891377
0.000891343
0.000891322
0.000891309
0.000891301
0.000891297
0.000891295
0.000891294
0.000891293
0.000891294
0.000891294
0.000891295
0.000891295
0.000891296
0.000891296
0.000891296
0.000891296
0.000891296
0.000891297
0.000889429
0.000889432
0.000889434
0.000889436
0.000889439
0.000889444
0.000889449
0.000889456
0.000889464
0.000889473
0.000889483
0.000889496
0.000889511
0.000889529
0.000889552
0.00088958
0.000889618
0.000889667
0.000889734
0.000889829
0.000889953
0.000890212
0.000890548
0.000891193
0.000891467
0.000892763
0.000892588
0.000893348
0.000894276
0.000895059
0.00089537
0.000895002
0.000894209
0.000893296
0.000892439
0.000890807
0.000891143
0.000890034
0.000889983
0.000889806
0.000889671
0.000889587
0.000889532
0.000889496
0.000889472
0.000889456
0.000889446
0.000889439
0.000889435
0.000889432
0.00088943
0.000889428
0.000889427
0.000889426
0.000889426
0.000889425
0.000889425
0.000889424
0.000889424
0.000889425
0.000887591
0.000887594
0.000887595
0.000887598
0.000887602
0.000887607
0.000887613
0.000887621
0.00088763
0.000887641
0.000887654
0.000887669
0.000887688
0.000887712
0.000887743
0.000887782
0.000887834
0.000887906
0.000888006
0.000888153
0.000888349
0.000888772
0.000889227
0.000889859
0.000890699
0.000892659
0.00089272
0.00089518
0.000898392
0.000900979
0.000901373
0.000899427
0.000896748
0.000894382
0.000892575
0.000889514
0.000890049
0.000888559
0.000888428
0.000888201
0.000887997
0.000887872
0.000887788
0.000887732
0.000887695
0.000887669
0.000887651
0.000887638
0.000887629
0.000887622
0.000887617
0.000887614
0.000887611
0.000887608
0.000887607
0.000887605
0.000887604
0.000887603
0.000887602
0.000887603
0.000885798
0.000885801
0.000885803
0.000885806
0.00088581
0.000885816
0.000885823
0.000885831
0.000885842
0.000885854
0.000885869
0.000885888
0.000885912
0.000885942
0.000885982
0.000886034
0.000886106
0.000886206
0.000886349
0.00088657
0.000886873
0.00088753
0.000888101
0.000888825
0.000890818
0.00089357
0.000895259
0.00090339
0.000916755
0.000928746
0.000927818
0.000916352
0.000905505
0.000898609
0.000894505
0.000889156
0.000889352
0.000887319
0.000886991
0.000886701
0.00088641
0.000886231
0.000886111
0.00088603
0.000885975
0.000885936
0.000885909
0.000885889
0.000885874
0.000885863
0.000885855
0.000885848
0.000885843
0.000885839
0.000885835
0.000885833
0.00088583
0.000885829
0.000885828
0.000885829
0.000884048
0.000884051
0.000884053
0.000884056
0.000884061
0.000884067
0.000884075
0.000884084
0.000884096
0.00088411
0.000884128
0.000884151
0.000884179
0.000884217
0.000884267
0.000884334
0.000884429
0.000884565
0.000884765
0.000885085
0.000885538
0.000886509
0.000887165
0.000888172
0.000892085
0.000895839
0.000903599
0.000896797
0.000393163
0.000265922
0.000296551
0.000502038
0.000929987
0.000908575
0.000899077
0.000890529
0.000889112
0.000886406
0.000885689
0.000885301
0.000884908
0.000884662
0.000884498
0.000884387
0.00088431
0.000884256
0.000884218
0.000884189
0.000884168
0.000884152
0.000884139
0.000884129
0.000884121
0.000884115
0.00088411
0.000884106
0.000884103
0.0008841
0.000884099
0.0008841
0.000882339
0.000882342
0.000882345
0.000882348
0.000882353
0.00088236
0.000882368
0.000882378
0.000882391
0.000882408
0.000882428
0.000882454
0.000882488
0.000882534
0.000882595
0.00088268
0.000882803
0.000882982
0.000883252
0.000883698
0.000884353
0.000885722
0.000886387
0.00088797
0.000894578
0.000900151
0.00092465
0.000436959
0.000187484
9.74087e-05
0.000117651
0.000234099
0.000627764
0.000927009
0.000906793
0.000894356
0.000889453
0.000885909
0.000884547
0.000883994
0.000883485
0.000883162
0.000882946
0.0008828
0.000882699
0.000882627
0.000882575
0.000882537
0.000882508
0.000882486
0.000882468
0.000882455
0.000882444
0.000882435
0.000882428
0.000882423
0.000882418
0.000882415
0.000882413
0.000882414
0.000880669
0.000880673
0.000880675
0.000880679
0.000880684
0.000880691
0.0008807
0.000880712
0.000880726
0.000880744
0.000880767
0.000880797
0.000880836
0.00088089
0.000880964
0.000881069
0.000881223
0.000881453
0.000881808
0.000882406
0.000883316
0.000885163
0.000885719
0.000888213
0.000898218
0.000906957
0.00095837
0.00039488
0.000317446
0.000130877
0.000801848
0.000950326
0.000917126
0.000900764
0.000890591
0.000885889
0.000883596
0.000882772
0.000882133
0.000881725
0.000881451
0.000881264
0.000881136
0.000881044
0.000880978
0.000880929
0.000880891
0.000880863
0.00088084
0.000880822
0.000880808
0.000880797
0.000880788
0.000880781
0.000880775
0.000880771
0.000880769
0.00088077
0.000879037
0.000879041
0.000879044
0.000879047
0.000879053
0.00087906
0.00087907
0.000879082
0.000879097
0.000879117
0.000879142
0.000879176
0.000879221
0.000879284
0.000879371
0.000879498
0.000879687
0.000879975
0.00088043
0.000881201
0.000882432
0.00088479
0.000885208
0.000888826
0.000903218
0.000914748
0.000972285
0.000534944
0.00048363
0.000453402
0.000735746
0.000811546
0.000968364
0.000929238
0.00090911
0.000892713
0.000886353
0.000882857
0.000881628
0.000880846
0.000880345
0.000880009
0.00087978
0.000879621
0.000879508
0.000879425
0.000879364
0.000879317
0.000879281
0.000879253
0.000879231
0.000879213
0.000879199
0.000879188
0.000879179
0.000879172
0.000879167
0.000879163
0.000879164
0.000877441
0.000877445
0.000877448
0.000877452
0.000877457
0.000877465
0.000877475
0.000877487
0.000877504
0.000877525
0.000877553
0.00087759
0.000877641
0.000877712
0.000877814
0.000877964
0.000878191
0.000878543
0.000879111
0.00088007
0.000881687
0.000884553
0.000885026
0.000889873
0.000909871
0.000921177
0.00105124
0.000638713
0.00421422
0.0327769
0.00984929
0.0124189
0.00102129
0.000976185
0.000942463
0.000918281
0.000895784
0.000887246
0.000882331
0.000880553
0.00087961
0.000879015
0.000878614
0.00087834
0.00087815
0.000878013
0.000877914
0.000877839
0.000877783
0.000877739
0.000877705
0.000877678
0.000877656
0.000877639
0.000877625
0.000877614
0.000877606
0.0008776
0.000877596
0.000877596
0.00087588
0.000875884
0.000875886
0.00087589
0.000875896
0.000875903
0.000875914
0.000875927
0.000875944
0.000875967
0.000875997
0.000876037
0.000876094
0.000876174
0.00087629
0.000876464
0.000876731
0.00087715
0.000877842
0.000878996
0.000881051
0.000884426
0.000885393
0.0008915
0.000918387
0.000927829
0.00111951
0.00103022
0.00249813
0.0164123
0.0131686
0.0267037
0.00301766
0.000982484
0.00095454
0.000926714
0.000899449
0.000888452
0.000881991
0.000879536
0.000878414
0.000877725
0.00087726
0.00087694
0.000876718
0.000876558
0.00087644
0.000876353
0.000876286
0.000876234
0.000876193
0.000876161
0.000876135
0.000876115
0.000876098
0.000876085
0.000876075
0.000876068
0.000876063
0.000876064
0.000874351
0.000874355
0.000874358
0.000874362
0.000874367
0.000874375
0.000874386
0.000874399
0.000874417
0.000874441
0.000874472
0.000874516
0.000874578
0.000874666
0.000874797
0.000874994
0.000875302
0.00087579
0.000876613
0.000877967
0.000880488
0.00088441
0.000886521
0.000894067
0.000928143
0.000940883
0.00117184
0.00125304
0.00125745
0.00581657
0.00694902
0.0255594
0.00550013
0.00102096
0.000962918
0.000933061
0.000903184
0.000889832
0.000881796
0.000878565
0.00087725
0.000876468
0.000875942
0.000875577
0.000875322
0.000875138
0.000875003
0.000874901
0.000874824
0.000874764
0.000874716
0.000874679
0.000874649
0.000874625
0.000874606
0.000874591
0.000874579
0.000874571
0.000874565
0.000874565
0.000872854
0.000872858
0.000872861
0.000872864
0.00087287
0.000872878
0.000872889
0.000872902
0.000872921
0.000872945
0.000872979
0.000873025
0.000873091
0.000873187
0.000873331
0.000873551
0.0008739
0.000874459
0.000875417
0.000876979
0.000879958
0.000884525
0.000888569
0.000898086
0.000937782
0.000962961
0.00118765
0.00137404
0.00125899
0.00260607
0.00491712
0.0237744
0.00897662
0.00107778
0.00096842
0.000936973
0.000906568
0.000891249
0.000881694
0.00087763
0.000876108
0.000875236
0.000874654
0.000874245
0.000873958
0.00087375
0.000873598
0.000873483
0.000873394
0.000873326
0.000873272
0.000873229
0.000873195
0.000873167
0.000873146
0.000873128
0.000873115
0.000873105
0.000873099
0.000873099
0.000871387
0.000871392
0.000871394
0.000871398
0.000871403
0.000871411
0.000871422
0.000871436
0.000871454
0.000871479
0.000871514
0.000871562
0.000871632
0.000871735
0.000871891
0.000872135
0.000872525
0.000873156
0.000874247
0.000876029
0.000879433
0.000884796
0.000891659
0.0009041
0.000946649
0.000988819
0.00117509
0.00141558
0.00140085
0.00180561
0.00368866
0.0248679
0.0143204
0.00113752
0.000971393
0.000938703
0.000909471
0.000892635
0.000881647
0.000876721
0.000874984
0.000874025
0.00087339
0.00087294
0.000872623
0.000872393
0.000872223
0.000872095
0.000871996
0.000871919
0.000871858
0.00087181
0.000871772
0.000871741
0.000871716
0.000871697
0.000871682
0.000871671
0.000871664
0.000871663
0.00086995
0.000869954
0.000869957
0.00086996
0.000869966
0.000869973
0.000869984
0.000869997
0.000870016
0.000870041
0.000870077
0.000870127
0.000870199
0.000870309
0.000870477
0.000870745
0.000871174
0.000871876
0.000873095
0.000875119
0.000878905
0.000885249
0.000895915
0.00091274
0.000955896
0.00101515
0.00115203
0.00139792
0.00148049
0.00158171
0.00257379
0.0328867
0.0204343
0.00116364
0.000972345
0.000938815
0.00091152
0.000893841
0.000881615
0.000875835
0.000873876
0.000872832
0.000872149
0.000871659
0.000871315
0.000871063
0.000870876
0.000870735
0.000870626
0.000870541
0.000870474
0.000870421
0.000870378
0.000870344
0.000870316
0.000870295
0.000870278
0.000870266
0.000870258
0.000870257
0.000868541
0.000868545
0.000868547
0.000868551
0.000868556
0.000868563
0.000868573
0.000868587
0.000868605
0.00086863