/*--------------------------------*- C++ -*----------------------------------*\
  =========                 |
  \\      /  F ield         | OpenFOAM: The Open Source CFD Toolbox
   \\    /   O peration     | Website:  https://openfoam.org
    \\  /    A nd           | Version:  12
     \\/     M anipulation  |
\*---------------------------------------------------------------------------*/
FoamFile
{
    format      ascii;
    class       volScalarField;
    location    "360";
    object      omega;
}
// * * * * * * * * * * * * * * * * * * * * * * * * * * * * * * * * * * * * * //

dimensions      [0 0 -1 0 0 0 0];

internalField   nonuniform List<scalar> 
16227
(
9.34702
9.34704
9.34704
9.34707
9.34706
9.3471
9.34709
9.34708
9.34707
9.34709
9.34713
9.34715
9.3472
9.3472
9.3472
9.3472
9.3472
9.3472
9.3472
9.3472
9.3472
9.3472
9.3472
9.3472
9.3472
9.3472
9.3472
9.34722
9.34722
9.3472
9.34721
9.3472
9.3472
9.3472
9.34721
9.3472
9.3472
9.3472
9.3472
9.3472
9.3472
9.3472
9.3472
9.3472
9.3472
9.3472
9.3472
9.34719
9.34717
9.34717
9.34717
9.34716
9.3471
9.3471
9.34706
9.34705
9.34707
9.34705
9.34703
9.34702
8.71806
8.71808
8.71807
8.7181
8.71811
8.71814
8.71813
8.71811
8.71812
8.71813
8.71818
8.7182
8.71834
8.7184
8.71841
8.71841
8.71841
8.71841
8.71841
8.71841
8.71842
8.71843
8.71843
8.71843
8.71843
8.71843
8.71843
8.71842
8.71841
8.71836
8.71841
8.71842
8.71842
8.71842
8.71842
8.71841
8.7184
8.7184
8.7184
8.7184
8.7184
8.7184
8.7184
8.71839
8.71839
8.71837
8.71838
8.71838
8.71838
8.71837
8.71834
8.71829
8.71818
8.71816
8.71813
8.71811
8.71814
8.71806
8.71808
8.71805
8.16621
8.16623
8.16623
8.16625
8.16624
8.16633
8.16629
8.16628
8.16629
8.1663
8.16634
8.16636
8.1666
8.16666
8.16667
8.16668
8.16668
8.16667
8.16669
8.16664
8.16667
8.16668
8.16668
8.16667
8.16667
8.16666
8.16666
8.16666
8.16665
8.16658
8.16663
8.16664
8.16664
8.16664
8.16664
8.16664
8.16664
8.16663
8.16662
8.16663
8.16663
8.16663
8.16662
8.16661
8.16662
8.16662
8.16661
8.16662
8.16661
8.16659
8.16655
8.16636
8.16629
8.16628
8.16626
8.16626
8.16629
8.1662
8.16621
8.16619
7.67836
7.67838
7.67838
7.67839
7.6784
7.67847
7.67847
7.67844
7.67844
7.67844
7.67849
7.67855
7.6788
7.67887
7.67889
7.6789
7.67891
7.67892
7.67885
7.67873
7.67883
7.67887
7.67885
7.67885
7.67885
7.67884
7.67883
7.67881
7.67878
7.67869
7.67876
7.67877
7.67876
7.67876
7.67875
7.67876
7.67876
7.67876
7.67876
7.67876
7.67876
7.67876
7.67876
7.67877
7.67877
7.67876
7.67877
7.67877
7.67878
7.67875
7.67864
7.67846
7.67836
7.67839
7.67838
7.6784
7.67838
7.67831
7.67831
7.67829
7.24417
7.24418
7.24419
7.24421
7.24421
7.24427
7.2443
7.24424
7.24426
7.24426
7.2443
7.24436
7.2446
7.24473
7.24474
7.24474
7.24474
7.24472
7.2445
7.24443
7.24461
7.24466
7.24464
7.24462
7.24459
7.24457
7.24455
7.24453
7.24449
7.24438
7.24445
7.24446
7.24446
7.24444
7.24443
7.24444
7.24444
7.24445
7.24445
7.24446
7.24447
7.24449
7.24448
7.24449
7.2445
7.24451
7.24452
7.24453
7.24453
7.24446
7.24423
7.24413
7.24406
7.24409
7.24412
7.24417
7.24411
7.24404
7.24404
7.24403
6.85539
6.85541
6.85541
6.85543
6.85543
6.85548
6.85552
6.85548
6.85546
6.85546
6.85547
6.85551
6.85563
6.85591
6.85597
6.85598
6.85597
6.85586
6.85562
6.85557
6.85576
6.8558
6.85577
6.85572
6.85569
6.85566
6.85562
6.85557
6.85551
6.85539
6.85545
6.85545
6.85544
6.85544
6.85543
6.85543
6.85544
6.85545
6.85546
6.85547
6.85549
6.85551
6.85553
6.85555
6.85557
6.85558
6.8556
6.85562
6.85563
6.8555
6.85528
6.85518
6.85515
6.85521
6.85526
6.85525
6.85521
6.85515
6.85515
6.85514
6.50537
6.50539
6.50538
6.5054
6.5054
6.50545
6.50549
6.50548
6.50544
6.50544
6.50543
6.50543
6.50554
6.50579
6.50592
6.50593
6.50589
6.50559
6.50546
6.50544
6.50563
6.50564
6.50559
6.50553
6.50547
6.50541
6.50534
6.50529
6.50521
6.50506
6.50512
6.50511
6.50509
6.50508
6.50508
6.50508
6.50509
6.50511
6.50513
6.50517
6.50519
6.50522
6.50526
6.50528
6.50533
6.50535
6.50538
6.50541
6.50536
6.50512
6.50501
6.50494
6.50496
6.50504
6.50507
6.50507
6.50503
6.50498
6.50499
6.50497
6.18868
6.18868
6.18868
6.18871
6.1887
6.18874
6.18878
6.18878
6.18875
6.18872
6.1887
6.18867
6.18871
6.18884
6.18912
6.18919
6.18911
6.18876
6.18863
6.1886
6.18878
6.18877
6.18869
6.1886
6.18851
6.18842
6.18834
6.18825
6.18814
6.18798
6.18802
6.18801
6.18798
6.18796
6.18796
6.18797
6.18798
6.18801
6.18804
6.18809
6.18814
6.18818
6.18823
6.18828
6.18834
6.18838
6.18843
6.18845
6.18835
6.18813
6.18804
6.18802
6.18809
6.18815
6.18817
6.18818
6.18815
6.18811
6.18812
6.18811
5.90084
5.90084
5.90085
5.90085
5.90086
5.90089
5.90093
5.90092
5.90092
5.90087
5.90083
5.90078
5.9008
5.90089
5.90121
5.90129
5.90112
5.90078
5.90065
5.90059
5.90075
5.90071
5.90059
5.90047
5.90035
5.90023
5.9001
5.89999
5.89986
5.89966
5.89969
5.89966
5.89963
5.89961
5.8996
5.89962
5.89964
5.89969
5.89973
5.89979
5.89985
5.89993
5.89999
5.90006
5.90013
5.90021
5.90027
5.90024
5.90002
5.89993
5.89989
5.89996
5.90001
5.90007
5.9001
5.90011
5.9001
5.90007
5.90008
5.90008
5.63814
5.63815
5.63814
5.63816
5.63815
5.63818
5.63822
5.6382
5.63819
5.63818
5.63812
5.63805
5.63805
5.63814
5.6384
5.63846
5.63813
5.6379
5.63778
5.6377
5.63782
5.63775
5.6376
5.63744
5.63727
5.63711
5.63696
5.6368
5.63664
5.63642
5.63643
5.63638
5.63633
5.63631
5.63631
5.63632
5.63636
5.63642
5.63649
5.63656
5.63665
5.63674
5.63685
5.63694
5.63704
5.63713
5.6372
5.63716
5.63694
5.63688
5.63692
5.63698
5.63704
5.63711
5.63715
5.63718
5.63716
5.63715
5.63716
5.63716
5.39747
5.39748
5.39748
5.39748
5.39749
5.39751
5.39754
5.39752
5.39751
5.39749
5.39745
5.39735
5.39729
5.39733
5.39742
5.3976
5.39728
5.39707
5.39693
5.39682
5.39686
5.39678
5.3966
5.39639
5.39618
5.39598
5.39577
5.39558
5.39539
5.39513
5.39511
5.39505
5.39499
5.39496
5.39496
5.39499
5.39504
5.39511
5.3952
5.39531
5.39542
5.39554
5.39567
5.39579
5.39592
5.39602
5.39605
5.39597
5.39588
5.39587
5.39593
5.396
5.39608
5.39617
5.39621
5.39625
5.39625
5.39623
5.39626
5.39626
5.17622
5.17622
5.17622
5.17623
5.17623
5.17625
5.17627
5.17626
5.17624
5.17621
5.17616
5.17608
5.17599
5.17596
5.17601
5.17614
5.17588
5.17566
5.17547
5.17531
5.17517
5.17516
5.17497
5.17472
5.17445
5.17419
5.17395
5.17371
5.17347
5.17318
5.17314
5.17306
5.17299
5.17295
5.17295
5.17299
5.17306
5.17315
5.17326
5.1734
5.17355
5.1737
5.17386
5.17402
5.17417
5.17426
5.17421
5.17423
5.17423
5.17425
5.17433
5.17443
5.17452
5.17462
5.17468
5.17473
5.17473
5.17473
5.17475
5.17475
4.97215
4.97216
4.97216
4.97216
4.97217
4.97218
4.97219
4.97219
4.97216
4.97212
4.97208
4.97199
4.97189
4.97179
4.97173
4.9717
4.97161
4.97143
4.9712
4.97099
4.97076
4.97074
4.97051
4.9702
4.96987
4.96956
4.96925
4.96896
4.96868
4.96835
4.96828
4.96817
4.96809
4.96805
4.96806
4.96811
4.9682
4.96831
4.96847
4.96863
4.96881
4.96901
4.9692
4.9694
4.96956
4.96965
4.96964
4.96973
4.96975
4.9698
4.96991
4.97003
4.97014
4.97024
4.97032
4.97037
4.9704
4.9704
4.97042
4.97043
4.78337
4.78339
4.78338
4.78338
4.78339
4.7834
4.78341
4.7834
4.78337
4.78333
4.78327
4.78318
4.78308
4.78297
4.78283
4.78276
4.78268
4.78249
4.78223
4.78196
4.78168
4.78161
4.78131
4.78093
4.78055
4.78016
4.77979
4.77945
4.77911
4.77874
4.77862
4.7785
4.7784
4.77837
4.77838
4.77845
4.77856
4.77871
4.77889
4.77911
4.77932
4.77956
4.77979
4.78002
4.78015
4.78023
4.78036
4.78048
4.78054
4.78064
4.78077
4.78091
4.78104
4.78115
4.78124
4.78131
4.78134
4.78136
4.78139
4.78139
4.60824
4.60826
4.60826
4.60826
4.60826
4.60828
4.60828
4.60827
4.60825
4.6082
4.60814
4.60804
4.60793
4.60779
4.60766
4.60754
4.60745
4.60722
4.60691
4.60659
4.60625
4.60611
4.60575
4.6053
4.60484
4.60438
4.60394
4.60352
4.60312
4.60271
4.60256
4.60241
4.6023
4.60226
4.60229
4.60238
4.60252
4.60271
4.60293
4.60319
4.60345
4.60374
4.60401
4.60423
4.60432
4.60451
4.6047
4.60487
4.60499
4.60512
4.60529
4.60544
4.60558
4.60572
4.60582
4.6059
4.60594
4.60597
4.606
4.606
4.44536
4.44537
4.44538
4.44538
4.44538
4.4454
4.44541
4.44539
4.44537
4.44532
4.44525
4.44514
4.44503
4.44488
4.44473
4.4446
4.44446
4.4442
4.44384
4.44347
4.44308
4.4428
4.44241
4.44189
4.44134
4.4408
4.44028
4.43979
4.43932
4.43885
4.43866
4.43848
4.43836
4.43833
4.43837
4.43849
4.43866
4.4389
4.43917
4.43947
4.43979
4.44013
4.44045
4.44067
4.44082
4.44106
4.44129
4.44147
4.44164
4.44183
4.44204
4.44222
4.44238
4.44253
4.44265
4.44274
4.44279
4.44282
4.44286
4.44287
4.2935
4.29351
4.29352
4.29352
4.29353
4.29354
4.29355
4.29353
4.29351
4.29347
4.2934
4.29328
4.29316
4.29301
4.29283
4.29268
4.29252
4.2922
4.29181
4.29136
4.29089
4.29042
4.29005
4.28948
4.28884
4.2882
4.28759
4.28701
4.28647
4.28594
4.2857
4.2855
4.28537
4.28534
4.2854
4.28555
4.28577
4.28605
4.28638
4.28674
4.28713
4.28751
4.2878
4.28805
4.28833
4.28864
4.28893
4.28914
4.28935
4.28959
4.28982
4.29003
4.2902
4.29037
4.2905
4.2906
4.29066
4.2907
4.29074
4.29076
4.15159
4.1516
4.15161
4.15161
4.15162
4.15164
4.15165
4.15163
4.15161
4.15157
4.1515
4.15139
4.15126
4.1511
4.1509
4.15072
4.15054
4.1502
4.14975
4.14924
4.14869
4.14809
4.14767
4.14702
4.14628
4.14553
4.14481
4.14414
4.14351
4.14291
4.14263
4.14239
4.14225
4.14223
4.14232
4.1425
4.14278
4.14312
4.14352
4.14394
4.14439
4.14479
4.14506
4.14542
4.14581
4.14619
4.14651
4.14677
4.14704
4.14731
4.14757
4.1478
4.14799
4.14818
4.14832
4.14843
4.1485
4.14855
4.14859
4.14861
4.01868
4.0187
4.01871
4.01872
4.01873
4.01875
4.01877
4.01876
4.01874
4.0187
4.01864
4.01853
4.01839
4.01822
4.01802
4.01782
4.01759
4.01722
4.01674
4.01617
4.01554
4.01487
4.01429
4.01357
4.01271
4.01184
4.011
4.01022
4.00949
4.00882
4.00847
4.0082
4.00806
4.00805
4.00817
4.00842
4.00875
4.00916
4.00963
4.01012
4.01064
4.01108
4.01143
4.01187
4.01233
4.01276
4.0131
4.01342
4.01375
4.01407
4.01435
4.0146
4.01482
4.01502
4.01517
4.01529
4.01537
4.01543
4.01547
4.0155
3.89398
3.894
3.89401
3.89402
3.89403
3.89406
3.89408
3.89408
3.89407
3.89403
3.89398
3.89387
3.89374
3.89357
3.89336
3.89312
3.89286
3.89248
3.89196
3.89133
3.89061
3.88984
3.88902
3.88828
3.88734
3.88633
3.88535
3.88443
3.8836
3.88284
3.88243
3.88213
3.88198
3.88199
3.88216
3.88246
3.88286
3.88335
3.88388
3.88442
3.88498
3.88548
3.886
3.88654
3.88708
3.88754
3.88793
3.88831
3.88869
3.88904
3.88935
3.88962
3.88986
3.89007
3.89024
3.89036
3.89045
3.89051
3.89057
3.89059
3.77673
3.77675
3.77677
3.77678
3.7768
3.77684
3.77687
3.77687
3.77687
3.77684
3.7768
3.7767
3.77657
3.7764
3.77617
3.7759
3.7756
3.77522
3.77468
3.77401
3.77322
3.77233
3.77138
3.77053
3.76945
3.76828
3.76714
3.76607
3.76509
3.76423
3.76375
3.76342
3.76327
3.76332
3.76354
3.76391
3.7644
3.76496
3.76557
3.76621
3.76679
3.76742
3.76807
3.76872
3.7693
3.76979
3.77025
3.7707
3.77113
3.77151
3.77184
3.77213
3.77239
3.77261
3.77279
3.77293
3.77302
3.77309
3.77314
3.77317
3.6663
3.66633
3.66635
3.66637
3.66639
3.66643
3.66647
3.66649
3.6665
3.66649
3.66645
3.66637
3.66625
3.66609
3.66586
3.66557
3.66525
3.66487
3.6643
3.66357
3.66272
3.66174
3.66067
3.65965
3.65842
3.65707
3.65573
3.65448
3.65335
3.65237
3.65181
3.65144
3.6513
3.65138
3.65167
3.65213
3.65269
3.65334
3.65407
3.65483
3.65552
3.65627
3.65703
3.65775
3.65839
3.65893
3.65945
3.65996
3.66042
3.66083
3.66119
3.6615
3.66177
3.66201
3.66219
3.66234
3.66244
3.66252
3.66257
3.6626
3.56212
3.56215
3.56217
3.5622
3.56223
3.56228
3.56233
3.56236
3.56239
3.56239
3.56237
3.5623
3.56221
3.56206
3.56184
3.56155
3.56122
3.56082
3.56024
3.55948
3.55856
3.55749
3.55631
3.55506
3.55377
3.55219
3.55062
3.54915
3.54784
3.54671
3.54606
3.54566
3.54553
3.54567
3.54604
3.54661
3.54718
3.54795
3.54875
3.54964
3.55053
3.55143
3.55228
3.55305
3.55373
3.55436
3.55496
3.55551
3.55601
3.55644
3.55683
3.55716
3.55744
3.55768
3.55788
3.55803
3.55814
3.55821
3.55827
3.55831
3.46367
3.4637
3.46373
3.46376
3.46381
3.46386
3.46393
3.46397
3.46402
3.46404
3.46404
3.46399
3.46392
3.46379
3.4636
3.46332
3.46296
3.46253
3.46197
3.46121
3.46025
3.45911
3.45784
3.45704
3.50287
3.5012
3.49947
3.49785
3.49641
3.49518
3.49447
3.49406
3.49394
3.49411
3.49453
3.49514
3.44773
3.44829
3.44927
3.45032
3.45136
3.45238
3.45331
3.45413
3.45488
3.4556
3.45626
3.45686
3.45738
3.45784
3.45824
3.45859
3.45888
3.45913
3.45933
3.45949
3.4596
3.45968
3.45974
3.45978
3.37049
3.37053
3.37056
3.37061
3.37066
3.37073
3.3708
3.37087
3.37093
3.37097
3.371
3.37098
3.37094
3.37084
3.37068
3.37042
3.37007
3.36962
3.36906
3.36834
3.36737
3.3662
3.36547
3.40908
3.40545
3.4037
3.40163
3.39967
3.39794
3.39649
3.39564
3.39518
3.39508
3.39532
3.39583
3.3965
3.39905
3.35437
3.3552
3.35639
3.35757
3.35869
3.3597
3.3606
3.36142
3.36221
3.36292
3.36355
3.3641
3.36458
3.36499
3.36534
3.36564
3.3659
3.3661
3.36626
3.36638
3.36646
3.36652
3.36656
3.28218
3.28222
3.28226
3.28231
3.28237
3.28245
3.28254
3.28263
3.28271
3.28278
3.28284
3.28286
3.28285
3.28279
3.28267
3.28246
3.28214
3.28172
3.28118
3.28049
3.27954
3.27838
3.27812
3.31731
3.31362
3.33396
3.33159
3.32932
3.32736
3.32573
3.32483
3.32435
3.32429
3.32457
3.32513
3.30348
3.30571
3.26535
3.26613
3.26745
3.26875
3.26995
3.27102
3.27201
3.27293
3.27377
3.27451
3.27517
3.27574
3.27623
3.27665
3.27701
3.27731
3.27757
3.27778
3.27794
3.27806
3.27814
3.2782
3.27824
3.19836
3.1984
3.19845
3.1985
3.19858
3.19867
3.19878
3.19889
3.19899
3.19909
3.19918
3.19924
3.19928
3.19927
3.1992
3.19905
3.19879
3.19842
3.19791
3.19726
3.19638
3.19535
3.19557
3.23063
3.22687
3.24517
3.24227
3.23955
3.23728
3.23557
3.23465
3.23425
3.23425
3.23454
3.23493
3.21548
3.21733
3.18101
3.18174
3.18315
3.18453
3.1858
3.18697
3.18805
3.18904
3.18991
3.19069
3.19136
3.19194
3.19244
3.19287
3.19323
3.19353
3.19379
3.194
3.19416
3.19427
3.19435
3.19441
3.19446
3.11869
3.11875
3.11879
3.11886
3.11894
3.11905
3.11918
3.11931
3.11944
3.11957
3.1197
3.1198
3.11989
3.11994
3.11994
3.11986
3.1197
3.11941
3.11898
3.11839
3.11762
3.11682
3.11755
3.14886
3.14506
3.1617
3.15805
3.15501
3.1526
3.1509
3.15009
3.14974
3.14968
3.14981
3.15008
3.13185
3.13387
3.10107
3.10171
3.10318
3.10463
3.10599
3.10725
3.1084
3.10942
3.11032
3.11111
3.11179
3.11238
3.11288
3.11331
3.11367
3.11396
3.11422
3.11442
3.11457
3.11469
3.11476
3.11482
3.11487
3.04288
3.04294
3.04299
3.04307
3.04316
3.04329
3.04343
3.04358
3.04374
3.04391
3.04407
3.04423
3.04437
3.04449
3.04457
3.04459
3.04453
3.04437
3.04408
3.04364
3.04302
3.04258
3.04384
3.07174
3.06836
3.08386
3.07901
3.07652
3.07478
3.07369
3.07307
3.07229
3.07155
3.07104
3.07094
3.05284
3.05534
3.0253
3.02577
3.02728
3.0288
3.03025
3.03157
3.03275
3.03379
3.0347
3.03549
3.03617
3.03675
3.03725
3.03767
3.03801
3.03831
3.03855
3.03875
3.03889
3.039
3.03907
3.03913
3.03918
2.97065
2.97072
2.97077
2.97086
2.97096
2.9711
2.97126
2.97144
2.97163
2.97183
2.97204
2.97224
2.97245
2.97264
2.97281
2.97294
2.97302
2.97302
2.97293
2.97274
2.9724
2.97249
2.97424
2.99917
2.99714
3.01163
3.00653
3.00692
3.00953
3.01186
3.01123
3.00723
3.00284
2.99997
2.99839
2.9789
2.98162
2.95361
2.95379
2.95535
2.95687
2.95834
2.95966
2.96084
2.96188
2.96278
2.96356
2.96422
2.96479
2.96527
2.96567
2.96601
2.96629
2.96652
2.9667
2.96684
2.96694
2.96701
2.96706
2.96711
2.90175
2.90182
2.90188
2.90197
2.90209
2.90225
2.90242
2.90262
2.90284
2.90307
2.90333
2.90358
2.90386
2.90413
2.9044
2.90466
2.90489
2.9051
2.90527
2.90543
2.90553
2.9064
2.9086
2.93101
2.93193
2.94572
2.94345
2.95604
2.98129
3.00483
3.00049
2.97447
2.95217
2.93992
2.93402
2.91132
2.91261
2.88599
2.88561
2.88714
2.88858
2.89
2.89129
2.89243
2.89344
2.89431
2.89506
2.8957
2.89625
2.8967
2.89708
2.89739
2.89765
2.89787
2.89804
2.89817
2.89826
2.89832
2.89836
2.89841
2.83596
2.83603
2.8361
2.8362
2.83632
2.83649
2.83668
2.8369
2.83715
2.83742
2.83771
2.83802
2.83836
2.83872
2.8391
2.83949
2.83991
2.84035
2.84084
2.84145
2.84217
2.8441
2.84678
2.8674
2.87304
2.88674
2.89818
2.95919
3.13239
3.36703
3.29703
3.06563
2.94195
2.89671
2.87975
2.85164
2.84828
2.8226
2.8211
2.82242
2.8237
2.82501
2.82622
2.8273
2.82825
2.82907
2.82978
2.83038
2.83088
2.8313
2.83165
2.83194
2.83218
2.83237
2.83252
2.83264
2.83272
2.83277
2.83281
2.83286
2.77306
2.77314
2.77321
2.77331
2.77345
2.77363
2.77383
2.77407
2.77434
2.77464
2.77498
2.77534
2.77575
2.77619
2.77668
2.77722
2.77783
2.77854
2.77939
2.78055
2.78207
2.78531
2.7884
2.80839
2.82072
2.83618
2.88774
3.14844
4.23637
8.77635
7.23614
3.92663
3.03035
2.87653
2.83609
2.80151
2.78901
2.76335
2.76008
2.76097
2.76201
2.76316
2.76424
2.76522
2.76609
2.76684
2.76748
2.76803
2.76849
2.76887
2.76918
2.76944
2.76965
2.76982
2.76995
2.77005
2.77012
2.77016
2.77019
2.77025
2.71287
2.71295
2.71303
2.71313
2.71328
2.71346
2.71369
2.71394
2.71423
2.71456
2.71493
2.71535
2.71581
2.71634
2.71693
2.71762
2.71843
2.71941
2.72067
2.72245
2.7249
2.72966
2.73299
2.7535
2.77425
2.79517
2.9251
3.69296
11.0414
14.8624
3.30945
2.87759
2.80172
2.76055
2.73493
2.70814
2.70241
2.70256
2.70328
2.7042
2.70512
2.70597
2.70673
2.70739
2.70796
2.70845
2.70885
2.70918
2.70945
2.70968
2.70986
2.71
2.71011
2.7102
2.71025
2.71029
2.71032
2.71037
2.65521
2.6553
2.65538
2.65549
2.65564
2.65583
2.65606
2.65633
2.65664
2.65699
2.6574
2.65785
2.65837
2.65897
2.65966
2.66049
2.66149
2.66276
2.66444
2.66687
2.67039
2.67669
2.68018
2.70183
2.73342
2.75922
2.98869
4.2025
14.179
152.034
18.8324
4.016
2.90067
2.77388
2.72673
2.68626
2.65681
2.64801
2.64705
2.64738
2.64804
2.64874
2.64943
2.65006
2.65062
2.6511
2.6515
2.65184
2.65211
2.65234
2.65252
2.65266
2.65278
2.65287
2.65293
2.65297
2.653
2.65302
2.65307
2.59993
2.60003
2.6001
2.60022
2.60037
2.60057
2.60081
2.60108
2.60141
2.60178
2.60221
2.60269
2.60325
2.60392
2.6047
2.60564
2.60683
2.60836
2.61046
2.61351
2.61815
2.62591
2.63
2.6531
2.69795
2.72202
3.06406
4.55739
7.54067
2.06524
4.88572
11.9858
5.57878
2.98627
2.7517
2.69681
2.64243
2.6089
2.59662
2.59421
2.59408
2.59443
2.5949
2.59541
2.59589
2.59632
2.59669
2.59701
2.59727
2.59748
2.59766
2.59779
2.59789
2.59798
2.59803
2.59808
2.5981
2.59812
2.59813
2.59818
2.54688
2.54698
2.54706
2.54717
2.54733
2.54753
2.54777
2.54805
2.54839
2.54877
2.54921
2.54972
2.55032
2.55102
2.55187
2.55291
2.55425
2.556
2.55847
2.56207
2.56782
2.57692
2.58243
2.60702
2.66707
2.68684
3.1384
4.69008
6.51208
4.04018
4.29148
23.1769
5.63715
3.12405
2.73165
2.66697
2.60217
2.56387
2.54792
2.54381
2.54315
2.54318
2.54341
2.54371
2.54402
2.54432
2.54458
2.5448
2.54499
2.54513
2.54524
2.54533
2.54539
2.54544
2.54547
2.54549
2.54549
2.54549
2.54549
2.54554
2.49593
2.49603
2.49611
2.49622
2.49638
2.49658
2.49682
2.49711
2.49744
2.49783
2.49828
2.4988
2.49941
2.50014
2.50103
2.50214
2.50356
2.50546
2.50824
2.51232
2.51916
2.5295
2.53759
2.56396
2.63836
2.66563
3.16383
4.47277
7.23577
5.37244
5.39344
18.8923
4.48468
3.22111
2.70814
2.63418
2.564
2.52113
2.50158
2.49561
2.49441
2.49411
2.49408
2.49417
2.49432
2.49447
2.49462
2.49474
2.49484
2.49491
2.49496
2.49499
2.49501
2.49502
2.49502
2.49502
2.495
2.49499
2.49499
2.49503
2.44695
2.44705
2.44713
2.44724
2.4474
2.4476
2.44784
2.44812
2.44845
2.44884
2.44929
2.4498
2.45042
2.45115
2.45204
2.45313
2.4546
2.45666
2.45971
2.4642
2.47194
2.48347
2.49546
2.52458
2.60817
2.66147
3.10977
4.11328
6.33054
5.8926
4.64742
13.2211
3.25463
3.22184
2.6818
2.59734
2.52674
2.48027
2.45733
2.44943
2.44765
2.44703
2.44675
2.44664
2.44662
2.44663
2.44666
2.44668
2.44669
2.44669
2.44668
2.44666
2.44663
2.4466
2.44657
2.44654
2.44651
2.44648
2.44647
2.44651
2.39984
2.39994
2.40001
2.40012
2.40027
2.40047
2.4007
2.40098
2.4013
2.40168
2.40212
2.40262
2.40321
2.40389
2.40475
2.40588
2.40741
2.40956
2.41279
2.41759
2.42594
2.43876
2.45601
2.48958
2.57501
2.66127
3.00272
3.77479
5.36263
5.64116
4.14007
9.19888
2.30971
3.17058
2.65142
2.55753
2.48993
2.4408
2.41485
2.40504
2.40267
2.40174
2.40125
2.40097
2.4008
2.40067
2.40057
2.40049
2.40042
2.40034
2.40027
2.4002
2.40013
2.40006
2.4
2.39995
2.3999
2.39985
2.39983
2.39987
2.35448
2.35458
2.35465
2.35476
2.3549
2.35509
2.35532
2.35559
2.3559
2.35626
2.35667
2.35714
2.35768
2.35833
2.35919
2.36032
2.36186
2.36403
2.36733
2.37237
2.38109
2.3953
2.41929
2.45986
2.54149
2.65812
2.88307
3.46768
4.59071
5.24653
4.70405
5.97921
1.66516
3.13416
2.62234
2.51568
2.45282
2.40256
2.374
2.36233
2.35943
2.35823
2.35751
2.35702
2.3567
2.35645
2.35625
2.35607
2.35591
2.35576
2.35563
2.3555
2.35539
2.35529
2.3552
2.35512
2.35505
2.35499
2.35496
2.35499
2.31078
2.31088
2.31095
2.31105
2.31119
2.31137
2.31159
2.31184
2.31214
2.31246
2.31282
2.31324
2.31377
2.31442
2.31525
2.31634
2.31783
2.31998
2.32329
2.32853
2.33737
2.35314
2.38542
2.43654
2.51266
2.66164
2.82096
3.32299
4.15238
4.89614
6.9307
3.43003
1.47544
3.22812
2.5999
2.47321
2.41558
2.36516
2.3345
2.32123
2.31775
2.3163
2.3154
2.3147
2.31421
2.31383
2.31355
2.31329
2.31306
2.31284
2.31265
2.31248
2.31232
2.31218
2.31206
2.31196
2.31187
2.3118
2.31176
2.31179
2.26865
2.26875
2.26882
2.26892
2.26905
2.26922
2.26942
2.26966
2.26992
2.27021
2.27054
2.27095
2.27145
2.27206
2.27283
2.27386
2.27527
2.27737
2.28062
2.28601
2.29484
2.31234
2.35432
2.42126
2.50103
2.67621
2.83465
3.10619
3.79944
5.60705
6.31684
2.17733
1.97027
3.61999
2.58673
2.43185
2.37845
2.32839
2.29611
2.28154
2.2776
2.27584
2.27477
2.27393
2.27329
2.27278
2.27239
2.27206
2.27176
2.27148
2.27123
2.27101
2.27082
2.27065
2.2705
2.27037
2.27026
2.27018
2.27013
2.27016
2.22801
2.22811
2.22818
2.22827
2.22839
2.22855
2.22874
2.22895
2.22918
2.22944
2.22976
2.23014
2.2306
2.23116
2.23187
2.23282
2.23415
2.23616
2.23931
2.24481
2.25369
2.27271
2.32565
2.41304
2.52265
2.68858
2.92973
3.41164
4.44556
6.04976
4.25103
2.12925
2.7756
4.18688
2.57544
2.39308
2.34148
2.29214
2.25869
2.24309
2.23881
2.23681
2.23552
2.23455
2.23379
2.23317
2.23268
2.23227
2.23192
2.23159
2.2313
2.23103
2.23079
2.23059
2.23042
2.23027
2.23015
2.23005
2.22999
2.23001
2.18878
2.18888
2.18894
2.18903
2.18915
2.18929
2.18944
2.18962
2.18984
2.1901
2.1904
2.19075
2.19116
2.19167
2.19231
2.19318
2.19441
2.19634
2.19937
2.20495
2.21402
2.23438
2.29901
2.41067
2.53643
3.09784
3.63813
3.9402
4.70103
5.17893
2.65816
1.89777
3.63502
4.48616
2.55252
2.35758
2.30504
2.25632
2.22213
2.20581
2.20126
2.1991
2.19764
2.1965
2.19561
2.19489
2.19434
2.19387
2.19345
2.19309
2.19275
2.19244
2.19217
2.19194
2.19174
2.19157
2.19143
2.19133
2.19126
2.19128
2.1509
2.151
2.15105
2.15113
2.15123
2.15135
2.15149
2.15167
2.15188
2.15211
2.15238
2.15269
2.15306
2.15352
2.15409
2.15489
2.15603
2.15786
2.16081
2.16644
2.17599
2.19813
2.27295
2.40603
2.78816
3.86148
3.9106
4.02487
4.59785
3.91532
1.81217
1.5565
4.37028
4.36222
2.51879
2.32521
2.26946
2.22091
2.18633
2.16961
2.16486
2.16257
2.16101
2.15974
2.15876
2.15794
2.15729
2.15676
2.15629
2.15588
2.15551
2.15518
2.15488
2.15462
2.15439
2.15421
2.15405
2.15394
2.15386
2.15388
2.11429
2.11438
2.11444
2.1145
2.11459
2.1147
2.11484
2.115
2.11519
2.1154
2.11565
2.11592
2.11625
2.11666
2.11718
2.11791
2.11896
2.1207
2.12364
2.12928
2.13946
2.16369
2.24712
2.41363
3.19918
4.21691
3.96477
4.14931
4.15928
3.00337
1.53498
1.35275
4.89686
4.07387
2.48401
2.29576
2.23468
2.18581
2.15135
2.13446
2.12954
2.12718
2.12552
2.12416
2.12311
2.12223
2.12149
2.12087
2.12037
2.11991
2.11951
2.11915
2.11883
2.11855
2.11831
2.1181
2.11794
2.11781
2.11773
2.11774
2.07889
2.07898
2.07903
2.07908
2.07916
2.07927
2.0794
2.07955
2.07972
2.07991
2.08013
2.08038
2.08067
2.08104
2.08151
2.08218
2.08315
2.08485
2.08781
2.09343
2.10425
2.1307
2.22519
2.46288
3.50135
4.26896
4.22907
4.41607
3.80495
2.60252
1.58003
1.77853
5.22372
3.76105
2.45788
2.26928
2.20062
2.1511
2.11712
2.10031
2.09526
2.09285
2.09111
2.0897
2.08858
2.08765
2.08686
2.08618
2.08561
2.08513
2.08469
2.08431
2.08397
2.08367
2.08341
2.08319
2.08301
2.08288
2.08279
2.0828
2.04464
2.04473
2.04477
2.04482
2.04489
2.045
2.04512
2.04526
2.04541
2.04559
2.04578
2.04601
2.04627
2.04661
2.04704
2.04766
2.04859
2.05025
2.05324
2.05885
2.07022
2.09897
2.20956
2.54585
3.65887
4.29729
4.7097
4.86704
3.66449
2.43703
1.74155
2.33084
5.32692
3.46963
2.44541
2.24604
2.16723
2.11694
2.08363
2.06708
2.06195
2.05954
2.05774
2.05629
2.05513
2.05416
2.05333
2.05262
2.05199
2.05145
2.051
2.05059
2.05023
2.04992
2.04965
2.04942
2.04923
2.04908
2.04899
2.049
2.01149
2.01158
2.01161
2.01166
2.01173
2.01183
2.01194
2.01207
2.01221
2.01237
2.01255
2.01275
2.01299
2.0133
2.0137
2.01427
2.0152
2.01684
2.01985
2.02546
2.03725
2.06832
2.19956
2.63764
3.71831
4.37038
5.23317
5.28306
3.63181
2.30002
1.93004
2.92352
5.24514
3.21949
2.44575
2.22638
2.13454
2.08354
2.0509
2.03474
2.02957
2.02719
2.02536
2.02389
2.02269
2.02169
2.02084
2.0201
2.01944
2.01886
2.01836
2.01794
2.01757
2.01724
2.01696
2.01672
2.01652
2.01637
2.01627
2.01628
1.97939
1.97948
1.97951
1.97956
1.97962
1.97971
1.97981
1.97993
1.98006
1.98021
1.98037
1.98056
1.98079
1.98107
1.98145
1.98199
1.98293
1.98455
1.98757
1.99319
2.00525
2.03856
2.19357
2.72172
3.72292
4.45831
5.66949
5.63521
3.7019
2.27776
2.09881
3.43619
5.04552
3.02771
2.45831
2.21041
2.10279
2.05107
2.01893
2.00324
1.99809
1.99576
1.99392
1.99244
1.99123
1.99021
1.98934
1.98857
1.9879
1.9873
1.98677
1.98631
1.98592
1.98558
1.98529
1.98505
1.98484
1.98469
1.98459
1.98458
1.9483
1.94838
1.94841
1.94845
1.94851
1.9486
1.94869
1.9488
1.94892
1.94905
1.94921
1.94938
1.9496
1.94986
1.95021
1.95076
1.9517
1.95331
1.95635
1.96195
1.97414
2.00952
2.19042
2.79244
3.69801
4.52748
5.99144
5.96688
3.82855
2.41311
2.27975
3.75322
4.77424
2.89381
2.48455
2.19709
2.07224
2.01966
1.98776
1.97257
1.96749
1.96523
1.96338
1.96192
1.9607
1.95968
1.95879
1.958
1.95731
1.9567
1.95615
1.95566
1.95525
1.9549
1.9546
1.95435
1.95414
1.95398
1.95388
1.95387
1.91816
1.91823
1.91826
1.9183
1.91836
1.91844
1.91853
1.91863
1.91874
1.91887
1.91901
1.91918
1.91937
1.91961
1.91997
1.92053
1.92146
1.92307
1.92611
1.93168
1.94388
1.98107
2.18947
2.85048
3.66041
4.57157
6.22061
6.30529
4.14536
2.63011
2.22218
3.68182
4.56545
2.84352
2.52496
2.18251
2.04312
1.98938
1.95742
1.9427
1.93775
1.93555
1.93372
1.93229
1.93107
1.93004
1.92914
1.92835
1.92764
1.92701
1.92645
1.92595
1.92551
1.92514
1.92484
1.92458
1.92437
1.92421
1.9241
1.92409
1.88893
1.889
1.88903
1.88907
1.88912
1.88919
1.88928
1.88937
1.88948
1.88959
1.88973
1.88989
1.89008
1.89031
1.89067
1.89123
1.89216
1.89376
1.8968
1.90232
1.91441
1.95305
2.1896
2.89586
3.61732
4.59381
6.33277
6.69316
4.72147
3.01764
2.26824
3.1638
4.51376
2.91863
2.58645
2.16007
2.01546
1.96021
1.92792
1.91366
1.90884
1.90671
1.90492
1.9035
1.9023
1.90127
1.90036
1.89956
1.89884
1.8982
1.89763
1.89712
1.89667
1.89628
1.89596
1.8957
1.89549
1.89532
1.89521
1.8952
1.86057
1.86065
1.86067
1.86071
1.86076
1.86082
1.8609
1.86099
1.86109
1.8612
1.86133
1.86148
1.86165
1.86189
1.86225
1.86281
1.86374
1.86534
1.86835
1.87381
1.88569
1.92529
2.18955
2.92898
3.57072
4.59601
6.27343
7.04266
5.38023
3.85419
2.70667
2.83232
4.26355
3.08323
2.66893
2.1281
1.98914
1.93206
1.89929
1.88543
1.88077
1.87869
1.87694
1.87555
1.87435
1.87333
1.87242
1.87161
1.87088
1.87023
1.86965
1.86913
1.86867
1.86828
1.86794
1.86766
1.86745
1.86729
1.86718
1.86716
1.83305
1.83312
1.83315
1.83318
1.83323
1.83329
1.83336
1.83345
1.83354
1.83365
1.83377
1.83391
1.83407
1.83432
1.83468
1.83523
1.83616
1.83775
1.84073
1.8461
1.85772
1.89808
2.18637
2.94694
3.52264
4.68164
6.196
7.28094
5.9768
4.44654
3.17853
2.92598
3.89263
3.14769
2.67264
2.09899
1.96358
1.90482
1.87157
1.85803
1.8535
1.85148
1.84976
1.84839
1.8472
1.84618
1.84527
1.84446
1.84373
1.84307
1.84248
1.84195
1.84148
1.84108
1.84073
1.84045
1.84022
1.84006
1.83995
1.83994
1.80633
1.8064
1.80642
1.80645
1.8065
1.80656
1.80662
1.8067
1.80679
1.80689
1.80701
1.80713
1.8073
1.80755
1.8079
1.80845
1.80937
1.81094
1.81389
1.81918
1.83054
1.87168
2.17927
3.13784
3.47011
4.69256
5.95391
6.82931
5.84412
4.4066
3.11967
2.6838
3.50104
3.1659
2.66966
2.08279
1.91944
1.87842
1.84479
1.83145
1.82703
1.82504
1.82335
1.82201
1.82082
1.81981
1.81889
1.81808
1.81734
1.81667
1.81607
1.81553
1.81506
1.81465
1.8143
1.81401
1.81377
1.8136
1.8135
1.81348
1.78038
1.78044
1.78046
1.78049
1.78053
1.78059
1.78065
1.78072
1.78081
1.7809
1.78101
1.78113
1.7813
1.78154
1.78189
1.78243
1.78333
1.7849
1.78779
1.79299
1.8041
1.8459
2.16913
3.0938
3.62182
4.92833
5.79708
6.0115
5.00461
3.73539
2.70108
2.49583
3.10893
2.97678
2.51763
1.99391
1.89484
1.85261
1.81887
1.80567
1.80134
1.79936
1.7977
1.79636
1.79518
1.79417
1.79325
1.79243
1.79168
1.79101
1.7904
1.78986
1.78938
1.78897
1.78861
1.78831
1.78807
1.7879
1.78779
1.78777
1.75516
1.75522
1.75524
1.75526
1.7553
1.75535
1.75541
1.75548
1.75556
1.75564
1.75573
1.75586
1.75603
1.75626
1.7566
1.75713
1.75802
1.75956
1.76241
1.76751
1.77839
1.82064
2.15539
3.04492
3.56675
4.87755
5.57058
5.52261
4.48262
3.32671
2.37722
2.15873
2.80293
2.88623
2.48602
1.97633
1.87033
1.82729
1.79371
1.78065
1.77638
1.77442
1.77276
1.77143
1.77026
1.76924
1.76832
1.76749
1.76674
1.76605
1.76544
1.76489
1.76441
1.76399
1.76363
1.76332
1.76308
1.7629
1.76279
1.76277
1.73065
1.7307
1.73071
1.73074
1.73078
1.73082
1.73088
1.73094
1.73101
1.73109
1.73117
1.73129
1.73146
1.73168
1.73201
1.73253
1.7334
1.73491
1.73771
1.74269
1.75333
1.7959
2.13856
2.99287
3.51555
4.81945
5.3575
5.10386
4.0522
2.98146
2.1049
1.88911
2.5494
2.79479
2.4515
1.9573
1.8458
1.80241
1.76927
1.75637
1.75214
1.75017
1.74852
1.74719
1.74601
1.74498
1.74406
1.74322
1.74246
1.74178
1.74116
1.7406
1.74011
1.73968
1.73932
1.73901
1.73877
1.73859
1.73847
1.73845
1.70681
1.70685
1.70687
1.70689
1.70692
1.70697
1.70702
1.70707
1.70714
1.7072
1.70729
1.7074
1.70756
1.70777
1.70809
1.70859
1.70944
1.71092
1.71366
1.71853
1.72891
1.77175
2.11974
2.93961
3.46878
4.75742
5.15974
4.74648
3.6932
2.69002
1.87819
1.67288
2.3408
2.70828
2.41593
1.93639
1.82127
1.77799
1.74552
1.73278
1.72857
1.7266
1.72494
1.7236
1.72241
1.72138
1.72045
1.71961
1.71884
1.71815
1.71752
1.71696
1.71646
1.71603
1.71566
1.71535
1.71511
1.71492
1.7148
1.71477
1.68362
1.68366
1.68367
1.68369
1.68372
1.68376
1.68381
1.68386
1.68391
1.68397
1.68405
1.68416
1.6843
1.6845
1.68481
1.68529
1.68612
1.68756
1.69025
1.69501
1.70508
1.74826
2.10002
2.88686
3.42663
4.69218
4.9745
4.43974
3.39072
2.44252
1.68842
1.49877
2.17049
2.62759
2.37944
1.91532
1.79727
1.75409
1.72241
1.70982
1.70564
1.70366
1.70199
1.70064
1.69944
1.6984
1.69746
1.69661
1.69584
1.69514
1.69451
1.69394
1.69344
1.693
1.69263
1.69232
1.69207
1.69188
1.69176
1.69172
1.66105