/*--------------------------------*- C++ -*----------------------------------*\
  =========                 |
  \\      /  F ield         | OpenFOAM: The Open Source CFD Toolbox
   \\    /   O peration     | Website:  https://openfoam.org
    \\  /    A nd           | Version:  12
     \\/     M anipulation  |
\*---------------------------------------------------------------------------*/
FoamFile
{
    format      ascii;
    class       volScalarField;
    location    "360";
    object      p;
}
// * * * * * * * * * * * * * * * * * * * * * * * * * * * * * * * * * * * * * //

dimensions      [0 2 -2 0 0 0 0];

internalField   nonuniform List<scalar> 
16227
(
0.085822
0.0859781
0.0862897
0.0867566
0.0873781
0.0881535
0.0890816
0.0901608
0.0913887
0.0927623
0.094278
0.0959307
0.0977148
0.0996237
0.101649
0.103782
0.106012
0.108326
0.11071
0.113148
0.115626
0.118124
0.120624
0.123107
0.125553
0.127943
0.130258
0.13248
0.134592
0.136579
0.138429
0.140131
0.141676
0.143061
0.144282
0.145339
0.146236
0.146976
0.147568
0.14802
0.148342
0.148547
0.148645
0.148651
0.148577
0.148436
0.148242
0.148007
0.147742
0.147459
0.147168
0.14688
0.146602
0.146341
0.146106
0.145901
0.145732
0.145601
0.145513
0.145468
0.0857073
0.0858634
0.0861753
0.0866426
0.0872648
0.0880411
0.0889705
0.0900513
0.0912813
0.0926576
0.0941765
0.0958335
0.0976227
0.0995377
0.10157
0.103711
0.10595
0.108274
0.110669
0.11312
0.11561
0.118122
0.120637
0.123134
0.125594
0.127998
0.130327
0.132561
0.134684
0.13668
0.138538
0.140245
0.141795
0.143181
0.144402
0.145458
0.14635
0.147086
0.147671
0.148115
0.148429
0.148624
0.148713
0.148709
0.148626
0.148476
0.148272
0.148028
0.147755
0.147465
0.147167
0.146872
0.146588
0.146323
0.146084
0.145875
0.145703
0.145571
0.145481
0.145435
0.0854527
0.0856091
0.0859216
0.0863899
0.0870135
0.0877918
0.0887239
0.0898084
0.091043
0.0924251
0.0939514
0.0956178
0.0974183
0.0993464
0.101394
0.103553
0.105812
0.108158
0.110578
0.113056
0.115576
0.118118
0.120664
0.123193
0.125685
0.12812
0.130478
0.132739
0.134887
0.136905
0.13878
0.1405
0.142058
0.143449
0.14467
0.145721
0.146605
0.147329
0.1479
0.148327
0.148622
0.148797
0.148865
0.148839
0.148734
0.148563
0.14834
0.148076
0.147785
0.147477
0.147164
0.146855
0.146559
0.146283
0.146034
0.145818
0.14564
0.145503
0.14541
0.145363
0.0850236
0.0851804
0.0854938
0.0859637
0.0865897
0.0873713
0.0883078
0.0893981
0.0906404
0.0920322
0.0935708
0.0952527
0.0970718
0.0990219
0.101096
0.103284
0.105577
0.107961
0.110422
0.112946
0.115515
0.118109
0.120708
0.123292
0.125838
0.128326
0.130734
0.133042
0.135231
0.137285
0.139189
0.140932
0.142505
0.143902
0.145122
0.146166
0.147036
0.14774
0.148286
0.148685
0.148948
0.149089
0.149121
0.149059
0.148918
0.148711
0.148453
0.148157
0.147835
0.147499
0.14716
0.146828
0.14651
0.146216
0.145952
0.145723
0.145534
0.14539
0.145292
0.145242
0.0844258
0.0845831
0.0848977
0.0853695
0.0859985
0.0867843
0.0877266
0.0888246
0.0900771
0.0914821
0.0930371
0.0947399
0.0965844
0.0985646
0.100674
0.102903
0.105242
0.107679
0.110199
0.112787
0.115425
0.118092
0.120767
0.123427
0.12605
0.128613
0.131092
0.133466
0.135715
0.13782
0.139766
0.14154
0.143133
0.14454
0.14576
0.146792
0.147643
0.148318
0.148829
0.149187
0.149405
0.149497
0.149479
0.149366
0.149174
0.148918
0.148611
0.14827
0.147905
0.147529
0.147154
0.146788
0.146442
0.146123
0.145837
0.14559
0.145387
0.145232
0.145126
0.145073
0.0836699
0.0838278
0.0841436
0.0846176
0.0852498
0.0860404
0.0869893
0.0880963
0.0893609
0.0907816
0.0923565
0.0940843
0.09596
0.0979777
0.100131
0.102412
0.10481
0.107312
0.109907
0.112578
0.115305
0.118066
0.120838
0.123598
0.126321
0.128981
0.131553
0.134013
0.136339
0.138511
0.140511
0.142325
0.143944
0.145363
0.146581
0.147598
0.148422
0.14906
0.149524
0.149828
0.149986
0.150016
0.149932
0.149753
0.149496
0.149175
0.148807
0.148407
0.147988
0.147562
0.14714
0.146733
0.146351
0.145999
0.145686
0.145417
0.145196
0.145027
0.144913
0.144855
0.0827588
0.0829171
0.083234
0.0837102
0.0843456
0.0851411
0.086097
0.0872137
0.0884916
0.0899299
0.0915274
0.0932834
0.0951957
0.0972577
0.0994635
0.101806
0.104274
0.106857
0.109543
0.112315
0.115151
0.118028
0.120921
0.123806
0.126653
0.129435
0.132124
0.134692
0.137114
0.139369
0.141436
0.143299
0.14495
0.146383
0.147596
0.148593
0.149381
0.149971
0.150375
0.150611
0.150694
0.150644
0.150479
0.150218
0.149878
0.149479
0.149035
0.148563
0.148077
0.147589
0.147112
0.146655
0.146228
0.145838
0.145492
0.145195
0.144953
0.144768
0.144643
0.14458
0.08169
0.0818486
0.0821665
0.0826443
0.0832826
0.0840825
0.0850452
0.0861718
0.0874633
0.0889204
0.0905425
0.0923298
0.0942823
0.0963945
0.0986609
0.101074
0.103625
0.106304
0.109098
0.11199
0.114957
0.117974
0.121015
0.124051
0.127051
0.129982
0.132814
0.135514
0.138055
0.140411
0.142559
0.144483
0.146171
0.147618
0.148824
0.149793
0.150536
0.151063
0.151393
0.151543
0.151533
0.151385
0.15112
0.150758
0.15032
0.149824
0.14929
0.148732
0.148166
0.147605
0.147062
0.146547
0.146067
0.145632
0.145248
0.144919
0.144652
0.144448
0.144311
0.144242
0.0804608
0.0806194
0.0809376
0.0814162
0.0820564
0.0828599
0.0838285
0.084964
0.0862688
0.0877446
0.0893925
0.091213
0.0932077
0.0953757
0.0977099
0.100204
0.102848
0.105637
0.108557
0.111591
0.114713
0.117896
0.121113
0.124331
0.127515
0.130628
0.133634
0.136495
0.139179
0.141658
0.143904
0.145898
0.147629
0.149092
0.150286
0.151219
0.151902
0.152352
0.152589
0.152634
0.15251
0.152243
0.151857
0.151375
0.150819
0.15021
0.149568
0.14891
0.148251
0.147605
0.146986
0.146402
0.145863
0.145376
0.144948
0.144583
0.144287
0.144062
0.143911
0.143835
0.0790697
0.079228
0.0795455
0.0800238
0.0806643
0.0814695
0.0824421
0.0835849
0.0849013
0.0863947
0.0880676
0.0899222
0.0919614
0.0941882
0.0965955
0.0991773
0.101928
0.104841
0.107905
0.111102
0.114404
0.117784
0.121209
0.124644
0.128049
0.13138
0.134595
0.13765
0.140507
0.143132
0.145495
0.147573
0.149353
0.15083
0.152006
0.152891
0.153501
0.153854
0.153975
0.153892
0.153631
0.153222
0.152691
0.152066
0.151372
0.150631
0.149864
0.14909
0.148324
0.147582
0.146876
0.146214
0.145608
0.145063
0.144586
0.144181
0.143853
0.143604
0.143437
0.143353
0.0775171
0.0776743
0.0779901
0.0784663
0.0791049
0.0799091
0.0808827
0.0820297
0.0833548
0.084863
0.0865589
0.0884465
0.0905304
0.0928163
0.0953004
0.0979771
0.100844
0.103897
0.107123
0.110505
0.114016
0.117625
0.121295
0.124987
0.128654
0.132246
0.135711
0.138999
0.142064
0.144864
0.147365
0.149539
0.151374
0.152864
0.154014
0.154836
0.155352
0.155585
0.155565
0.155326
0.154901
0.154321
0.153621
0.152829
0.151974
0.15108
0.15017
0.149263
0.148376
0.147525
0.146721
0.145974
0.145293
0.144684
0.144152
0.143704
0.143341
0.143067
0.142882
0.14279
0.075804
0.0759594
0.0762718
0.0767436
0.0773773
0.078177
0.0791475
0.0802943
0.0816235
0.083142
0.0848566
0.0867738
0.0888999
0.0912432
0.0938071
0.0965846
0.0995772
0.102782
0.106188
0.109779
0.113528
0.117402
0.121359
0.125354
0.129332
0.133235
0.137
0.140567
0.143879
0.146889
0.149552
0.151838
0.153732
0.155231
0.156343
0.157083
0.15748
0.157564
0.157373
0.156946
0.156323
0.155542
0.154642
0.153655
0.152614
0.151545
0.150473
0.149416
0.148395
0.147423
0.146511
0.14567
0.144906
0.144228
0.143638
0.143142
0.142741
0.142439
0.142237
0.142135
0.0739322
0.0740848
0.0743919
0.0748562
0.0754812
0.0762716
0.0772335
0.078374
0.0797008
0.081223
0.0829497
0.0848905
0.0870543
0.089452
0.0920934
0.0949742
0.0980993
0.101468
0.105071
0.108894
0.112915
0.117093
0.121385
0.125736
0.130083
0.134357
0.138482
0.142384
0.145993
0.14925
0.152104
0.154518
0.156477
0.157978
0.159034
0.159668
0.159915
0.159815
0.159413
0.15876
0.157901
0.156883
0.155749
0.154538
0.153283
0.152015
0.150759
0.149537
0.148367
0.147261
0.146232
0.145288
0.144437
0.143683
0.143031
0.142484
0.142044
0.141713
0.141491
0.14138
0.0719041
0.0720527
0.0723519
0.0728052
0.0734165
0.0741917
0.0751381
0.0762644
0.0775802
0.0790968
0.0808265
0.0827818
0.0849752
0.0874207
0.0901328
0.0931173
0.0963789
0.0999205
0.103737
0.107817
0.112143
0.116671
0.121349
0.126119
0.130906
0.135623
0.140181
0.144485
0.14845
0.152003
0.155081
0.157642
0.159668
0.16116
0.162138
0.162633
0.16269
0.162361
0.161704
0.160776
0.159637
0.15834
0.156934
0.155464
0.153966
0.152474
0.151014
0.149608
0.148274
0.147023
0.145868
0.144814
0.14387
0.143037
0.14232
0.14172
0.141239
0.140878
0.140636
0.140515
0.069723
0.0698662
0.0701547
0.0705925
0.0711845
0.0719372
0.0728595
0.0739617
0.0752555
0.0767547
0.0784745
0.0804317
0.0826427
0.0851252
0.0878996
0.090981
0.0943778
0.0980977
0.102142
0.106504
0.11117
0.116094
0.121222
0.126484
0.131793
0.137044
0.142123
0.146915
0.151309
0.155215
0.158557
0.161283
0.163377
0.164844
0.165712
0.166026
0.165843
0.165231
0.16426
0.163004
0.16153
0.159905
0.158184
0.156417
0.154645
0.152901
0.151216
0.14961
0.148098
0.146692
0.145402
0.144234
0.143191
0.142277
0.141492
0.140838
0.140315
0.139922
0.139661
0.139529
0.0673943
0.0675303
0.0678048
0.0682221
0.0687878
0.0695096
0.0703974
0.0714634
0.0727216
0.0741883
0.0758822
0.077824
0.0800354
0.0825392
0.0853616
0.0885273
0.0920518
0.0959498
0.100231
0.104897
0.109938
0.115312
0.120958
0.126801
0.132734
0.13863
0.144343
0.149727
0.154642
0.158973
0.162624
0.165536
0.167694
0.16911
0.169826
0.169903
0.169416
0.168452
0.167099
0.165445
0.163576
0.161566
0.159481
0.157375
0.155293
0.153273
0.151342
0.149518
0.147816
0.146246
0.144816
0.143528
0.142384
0.141386
0.140534
0.139825
0.13926
0.138836
0.138554
0.138413
0.0649251
0.065052
0.0653086
0.0656995
0.0662312
0.0669121
0.0677534
0.068769
0.0699751
0.0713909
0.0730385
0.074943
0.0771317
0.079634
0.0824826
0.0857128
0.08935
0.0934181
0.0979392
0.102925
0.108374
0.114252
0.120499
0.127026
0.133709
0.140388
0.146878
0.152988
0.158539
0.163382
0.167398
0.170517
0.172727
0.174055
0.17456
0.174328
0.173457
0.172055
0.170233
0.1681
0.16576
0.163301
0.160798
0.158309
0.155883
0.153559
0.151361
0.149304
0.147401
0.145661
0.144086
0.142676
0.141432
0.140351
0.13943
0.138668
0.138061
0.137608
0.137307
0.137156
0.0623244
0.0624402
0.0626746
0.0630327
0.0635215
0.0641503
0.0649313
0.0658799
0.0670147
0.0683576
0.0699339
0.0717736
0.0739101
0.0763798
0.0792239
0.0824893
0.0862133
0.090433
0.0951859
0.100498
0.106382
0.112823
0.11976
0.127096
0.134683
0.142323
0.149773
0.156784
0.163118
0.168582
0.173026
0.17637
0.17861
0.179795
0.180012
0.179377
0.178018
0.176069
0.173671
0.17096
0.168062
0.16508
0.162097
0.159177
0.156374
0.153721
0.151237
0.148935
0.146825
0.144911
0.14319
0.141659
0.140315
0.139152
0.138167
0.137353
0.136708
0.136227
0.135907
0.135747
0.0596033
0.0597057
0.0599133
0.0602316
0.0606679
0.0612321
0.0619375
0.0628005
0.0638417
0.0650856
0.0665611
0.0683027
0.07035
0.0727473
0.0755451
0.0788041
0.0825756
0.0869132
0.0918756
0.0975087
0.103847
0.110902
0.118624
0.126915
0.135605
0.144433
0.153083
0.16122
0.168527
0.174749
0.179696
0.183278
0.185506
0.186466
0.186287
0.185127
0.183151
0.180521
0.177414
0.174005
0.170446
0.166856
0.16333
0.159934
0.15672
0.153713
0.150928
0.148374
0.146054
0.143966
0.142101
0.140453
0.139013
0.137775
0.136729
0.135868
0.135188
0.134681
0.134345
0.134177
0.0567752
0.0568616
0.0570377
0.0573087
0.0576822
0.0581685
0.0587813
0.0595381
0.0604608
0.0615763
0.0629165
0.0645201
0.066433
0.0687079
0.0714055
0.0746008
0.0783629
0.0827661
0.087895
0.0938236
0.100617
0.108322
0.116921
0.126336
0.136371
0.146693
0.156865
0.166432
0.174966
0.182123
0.18766
0.191479
0.193627
0.194244
0.193524
0.191682
0.188919
0.185434
0.18145
0.177196
0.172857
0.168569
0.164433
0.160516
0.156859
0.153479
0.150385
0.147577
0.145051
0.142793
0.140792
0.139035
0.137509
0.136202
0.135102
0.134201
0.13349
0.132962
0.132613
0.132438
0.0538555
0.0539236
0.0540631
0.0542792
0.0545792
0.0549735
0.055476
0.0561044
0.0568815
0.0578355
0.0590012
0.0604207
0.0621457
0.0642371
0.0667659
0.0698219
0.0734963
0.077888
0.0831111
0.0892776
0.0964939
0.104855
0.114417
0.125151
0.136884
0.149094
0.161212
0.17261
0.182698
0.191005
0.197221
0.201247
0.20319
0.203286
0.201825
0.199097
0.195379
0.190819
0.185744
0.180466
0.175211
0.170128
0.16532
0.160842
0.156718
0.152956
0.149553
0.146498
0.143775
0.14136
0.139236
0.137382
0.135782
0.134417
0.133274
0.132341
0.131606
0.131062
0.130702
0.130522
0.0508621
0.0509096
0.0510077
0.0511612
0.0513769
0.0516651
0.0520389
0.0525158
0.0531183
0.0538754
0.0548231
0.0560065
0.0574815
0.0593165
0.0615925
0.0644133
0.0678967
0.0721679
0.0773748
0.0836782
0.0912397
0.100222
0.110778
0.122972
0.136773
0.151461
0.166146
0.179965
0.192086
0.201858
0.208873
0.213047
0.214601
0.213929
0.211467
0.207599
0.202645
0.19668
0.190231
0.183714
0.177395
0.171422
0.165882
0.160811
0.15621
0.15207
0.148371
0.145086
0.142184
0.139632
0.137404
0.135473
0.133814
0.132406
0.131233
0.130277
0.129527
0.128973
0.128607
0.128425
0.0478157
0.0478402
0.0478923
0.0479759
0.0480972
0.0482653
0.0484923
0.0487943
0.0491928
0.0497157
0.0503992
0.0512891
0.0524444
0.0539388
0.0558623
0.0583316
0.0614899
0.0654919
0.0705243
0.0768061
0.0845675
0.0940532
0.105554
0.119362
0.136038
0.153855
0.171872
0.188842
0.203575
0.215152
0.223031
0.227173
0.227997
0.226159
0.222338
0.216986
0.210764
0.202967
0.194784
0.186779
0.179243
0.172294
0.165981
0.160304
0.155235
0.150739
0.146771
0.143286
0.140234
0.137575
0.13527
0.133285
0.131589
0.130157
0.128968
0.128004
0.127249
0.126692
0.126325
0.126142
0.044739
0.0447386
0.0447406
0.0447479
0.0447655
0.0448008
0.0448638
0.0449687
0.0451341
0.0453856
0.0457571
0.0462932
0.0470526
0.0481123
0.0495681
0.0515466
0.0542119
0.0577515
0.0623947
0.0684239
0.0761504
0.0858859
0.098096
0.113276
0.127902
0.149054
0.170803
0.19173
0.210241
0.224966
0.235045
0.240283
0.241233
0.238849
0.234149
0.227911
0.219986
0.20958
0.199185
0.189397
0.180512
0.172533
0.165439
0.159177
0.153678
0.148871
0.144683
0.141042
0.137884
0.135156
0.132809
0.1308
0.129093
0.12766
0.126474
0.125515
0.124767
0.124216
0.123853
0.123673
0.041657
0.0416302
0.0415788
0.0415046
0.0414108
0.0413025
0.0411869
0.0410744
0.0409799
0.0409245
0.0409373
0.0410584
0.0413432
0.0418664
0.042726
0.0440533
0.0460252
0.0488615
0.0528346
0.0582883
0.0656326
0.0752096
0.0873366
0.102097
0.123311
0.148676
0.176613
0.203754
0.227608
0.24606
0.257792
0.262672
0.261814
0.256919
0.249657
0.24085
0.230831
0.216516
0.202992
0.191188
0.180894
0.171882
0.16405
0.157271
0.151417
0.146374
0.142033
0.1383
0.135093
0.132346
0.129999
0.128003
0.126318
0.124908
0.123747
0.12281
0.122082
0.121546
0.121194
0.121019
0.0385967
0.0385425
0.0384355
0.0382763
0.0380658
0.0378059
0.0375001
0.0371542
0.0367772
0.0363836
0.0359949
0.0356431
0.035375
0.0352577
0.0353841
0.0358829
0.0369349
0.0387802
0.0417356
0.0461984
0.052716
0.0618306
0.0733044
0.0910871
0.115242
0.140575
0.176887
0.211713
0.242687
0.26663
0.281296
0.286362
0.283609
0.275741
0.265605
0.256076
0.239199
0.222507
0.205269
0.191601
0.179969
0.170024
0.161582
0.154414
0.148326
0.143155
0.138757
0.135013
0.131829
0.129123
0.126827
0.124887
0.123257
0.1219
0.120786
0.119891
0.119197
0.118687
0.118352
0.118186
0.0355859
0.0355041
0.0353409
0.0350954
0.0347656
0.0343502
0.0338476
0.0332576
0.032582
0.0318261
0.0310009
0.0301259
0.0292336
0.028376
0.0276315
0.0271156
0.0270002
0.0275303
0.0290526
0.0320155
0.037116
0.0453763
0.0558545
0.0759289
0.103543
0.133194
0.1806
0.227503
0.270037
0.30238
0.320211
0.323459
0.315591
0.30149
0.285677
0.270941
0.247317
0.225026
0.204945
0.189927
0.177224
0.166607
0.157791
0.150437
0.144289
0.139133
0.134798
0.131146
0.128068
0.125472
0.123284
0.121447
0.119912
0.118639
0.117598
0.116764
0.116119
0.115646
0.115336
0.115182
0.0326531
0.0325443
0.032326
0.0319954
0.0315477
0.0309774
0.0302772
0.0294401
0.0284587
0.0273271
0.0260423
0.024607
0.0230332
0.0213492
0.0196071
0.0178943
0.0163543
0.0152122
0.0148182
0.0156443
0.0184662
0.0249246
0.0335559
0.0555186
0.0865907
0.122461
0.182767
0.246222
0.306076
0.351093
0.372679
0.370957
0.353069
0.328194
0.303357
0.280243
0.251303
0.223422
0.201323
0.185484
0.172172
0.161305
0.152461
0.145199
0.13921
0.134248
0.130121
0.126679
0.123801
0.121392
0.119376
0.117692
0.116291
0.115135
0.114193
0.113441
0.112859
0.112434
0.112156
0.112017
0.0298264
0.029692
0.0294216
0.0290103
0.0284502
0.0277312
0.0268401
0.0257619
0.0244789
0.0229719
0.0212213
0.0192084
0.0169187
0.0143473
0.0115068
0.00843703
0.00522658
0.00204264
-0.000808678
-0.00289628
-0.00352134
-0.00049692
0.00436462
0.0273406
0.0597212
0.102826
0.178811
0.266286
0.354587
0.421518
0.447579
0.433461
0.3961
0.353408
0.316122
0.283389
0.249419
0.21675
0.193691
0.177714
0.164447
0.153887
0.145448
0.138609
0.133038
0.128474
0.124718
0.121613
0.119037
0.116896
0.115116
0.113636
0.112412
0.111405
0.110587
0.109936
0.109434
0.109067
0.108827
0.108708
0.0271324
0.026975
0.0266575
0.0261731
0.0255106
0.0246553
0.023588
0.0222851
0.0207181
0.0188532
0.0166519
0.0140708
0.0110633
0.00758268
0.00358738
-0.000950156
-0.00602917
-0.0115934
-0.0174501
-0.0232996
-0.0287345
-0.0313023
-0.0332985
-0.0116651
0.0177969
0.066518
0.158895
0.280411
0.419067
0.529884
0.561021
0.51615
0.441002
0.371202
0.31856
0.275996
0.239108
0.203692
0.181261
0.166186
0.153837
0.144246
0.136695
0.130647
0.125777
0.121832
0.118615
0.115978
0.113807
0.112015
0.110533
0.109308
0.108299
0.107473
0.106803
0.106272
0.105862
0.105564
0.105369
0.105273
0.0245953
0.0244185
0.024061
0.0235141
0.0227639
0.0217912
0.020571
0.0190713
0.0172528
0.015067
0.0124554
0.00934823
0.00566289
0.0013041
-0.00383486
-0.00986903
-0.0169158
-0.0250868
-0.0343932
-0.0447781
-0.0563576
-0.0668589
-0.0796911
-0.0637919
-0.0454024
0.00136032
0.102759
0.264864
0.495553
0.710026
0.744336
0.617845
0.471889
0.367184
0.301493
0.253728
0.217913
0.183177
0.163527
0.150714
0.140317
0.132409
0.12626
0.121383
0.117503
0.114392
0.111878
0.109834
0.108164
0.106795
0.10567
0.104745
0.103987
0.103368
0.102869
0.102473
0.102169
0.101948
0.101804
0.101732
0.0222358
0.0220439
0.0216554
0.02106
0.0202411
0.0191762
0.0178346
0.0161775
0.0141555
0.0117063
0.00875263
0.00519834
0.000924612
-0.00421429
-0.010397
-0.0178385
-0.026795
-0.0375919
-0.0505293
-0.065919
-0.0846283
-0.105018
-0.132634
-0.128709
-0.133634
-0.10556
-0.0241295
0.152678
0.526963
1.03973
1.05707
0.694913
0.441872
0.316611
0.254642
0.212672
0.184189
0.155118
0.140618
0.131509
0.124118
0.118594
0.114339
0.110992
0.108364
0.10628
0.104612
0.10327
0.102185
0.101302
0.100583
0.099996
0.0995177
0.0991296
0.0988178
0.0985715
0.0983828
0.0982457
0.0981563
0.0981118
0.02007
0.0198682
0.0194593
0.0188318
0.0179674
0.0168406
0.0154172
0.0136525
0.0114893
0.00885421
0.00565404
0.00176995
-0.00294948
-0.00869702
-0.0157195
-0.024332
-0.0349331
-0.048078
-0.0644027
-0.0846704
-0.110681
-0.1417
-0.186295
-0.20069
-0.241337
-0.256907
-0.252247
-0.198739
0.0909783
1.48075
1.51791
0.48065
0.258864
0.196374
0.171891
0.153079
0.139225
0.120802
0.113497
0.109312
0.10581
0.10324
0.101279
0.0997507
0.09858
0.0976717
0.0969615
0.0964043
0.0959647
0.0956163
0.0953389
0.0951174
0.0949404
0.0947992
0.0946873
0.0945998
0.0945333
0.0944851
0.0944538
0.094438
0.0181086
0.0179028
0.0174853
0.0168441
0.01596
0.0148062
0.0133462
0.0115322
0.009302
0.00657534
0.00324813
-0.00081451
-0.00578805
-0.0119011
-0.0194552
-0.0288491
-0.0406006
-0.0554698
-0.0744063
-0.0986105
-0.130814
-0.17113
-0.231254
-0.267592
-0.348275
-0.4251
-0.541917
-0.773811
-1.37289
-0.683346
-0.0648648
0.0275619
0.0658543
0.0817872
0.0870392
0.0828443
0.0839537
0.0853826
0.0862811
0.0869902
0.0875614
0.0880212
0.0884291
0.088785
0.089097
0.0893729
0.0896157
0.0898283
0.0900134
0.090173
0.0903091
0.0904237
0.0905184
0.0905946
0.090654
0.0906973
0.0907257
0.0907395
0.0163565
0.0161526
0.0157388
0.0151033
0.014227
0.0130832
0.0116353
0.00983539
0.0076202
0.00490744
0.00158941
-0.00247509
-0.00747265
-0.0136498
-0.0213376
-0.0309862
-0.0431823
-0.0588222
-0.0790644
-0.105407
-0.141264
-0.187248
-0.257068
-0.313667
-0.425079
-0.558868
-0.774889
-1.16057
-1.49182
-1.84351
-0.195983
-0.241623
-0.123237
-0.0396125
0.0093049
0.0340224
0.0448677
0.0543617
0.0613317
0.0666475
0.0706387
0.0737664
0.0762348
0.0782381
0.0798714
0.081216
0.0823324
0.083263
0.0840406
0.0846906
0.0852327
0.0856828
0.0860534
0.0863548
0.0865948
0.0867799
0.0869145
0.0870025
0.0870459
0.014812
0.014616
0.0142183
0.0136077
0.0127665
0.0116697
0.0102832
0.00856158
0.00644533
0.00385605
0.000690847
-0.00318629
-0.00795659
-0.013862
-0.0212305
-0.0305175
-0.0423076
-0.0575296
-0.0773802
-0.103418
-0.139281
-0.185617
-0.256058
-0.326004
-0.449416
-0.616636
-0.886693
-1.44549
-2.92723
-4.59153
-1.98754
-0.947669
-0.476149
-0.248015
-0.125557
-0.0531778
-0.0131232
0.0104839
0.0271167
0.0387924
0.0480476
0.0550007
0.0604929
0.0648372
0.0683449
0.071191
0.073522
0.0754444
0.0770363
0.0783583
0.0794568
0.0803684
0.0811218
0.0817402
0.0822415
0.0826399
0.0829465
0.0831695
0.0833149
0.083387
0.0134674
0.0132849
0.0129146
0.0123469
0.0115663
0.0105513
0.00927217
0.00768986
0.00575249
0.00339196
0.000518771
-0.0029857
-0.00728044
-0.0125784
-0.0191683
-0.0274609
-0.0379602
-0.0515141
-0.069164
-0.092272
-0.124169
-0.165279
-0.226673
-0.299903
-0.413513
-0.577684
-0.821903
-1.32011
-2.53331
-3.8395
-2.24907
-1.21028
-0.566762
-0.302191
-0.174319
-0.0969108
-0.0494941
-0.0176816
0.00404163
0.019057
0.0314185
0.0407665
0.0482596
0.0542208
0.059052
0.0629801
0.066201
0.0688574
0.0710556
0.0728792
0.0743927
0.0756471
0.0766831
0.0775324
0.0782206
0.0787671
0.0791877
0.0794934
0.0796928
0.0797916
0.0123094
0.0121451
0.011812
0.0113025
0.0106046
0.00970137
0.00856987
0.00717971
0.00549086
0.00345113
0.000991937
-0.00197705
-0.00557711
-0.00997018
-0.0153727
-0.0221062
-0.0305218
-0.0412906
-0.0551434
-0.0730651
-0.0976131
-0.1291
-0.173991
-0.241086
-0.329672
-0.459678
-0.623219
-0.873121
-1.2017
-1.3399
-0.701752
-0.366264
-0.357037
-0.25995
-0.180345
-0.119801
-0.0733657
-0.0385749
-0.013951
0.00287899
0.0173781
0.0284301
0.0374605
0.0446974
0.0506089
0.0554389
0.0594151
0.0627029
0.0654283
0.0676918
0.0695719
0.071131
0.0724191
0.0734755
0.0743316
0.0750117
0.0755351
0.0759157
0.0761641
0.0762871
0.0113194
0.0111771
0.0108888
0.0104497
0.00985159
0.00908349
0.00813056
0.00697333
0.0055866
0.00393804
0.0019859
-0.000323914
-0.00306333
-0.00632697
-0.0102341
-0.0149832
-0.0207262
-0.0279085
-0.036854
-0.0481173
-0.0631136
-0.0825087
-0.107086
-0.161744
-0.221186
-0.310741
-0.402895
-0.495873
-0.573141
-0.446301
-0.138964
-0.0843088
-0.200422
-0.199564
-0.166393
-0.128043
-0.0867913
-0.0528194
-0.0269219
-0.0095733
0.00618164
0.0182517
0.0283373
0.0364791
0.0431981
0.0487213
0.0532937
0.057089
0.0602447
0.0628717
0.0650581
0.0668742
0.0683763
0.0696097
0.07061
0.0714053
0.0720177
0.0724634
0.0727542
0.0728984
0.0104753
0.0103573
0.010119
0.00975818
0.00927108
0.00865317
0.00789854
0.00699981
0.00594822
0.00473339
0.00334344
0.0017649
-1.87562e-05
-0.00202496
-0.00426392
-0.00680218
-0.00957931
-0.012801
-0.0163169
-0.0203265
-0.024834
-0.0314343
-0.0348945
-0.0741661
-0.106911
-0.16424
-0.242818
-0.276054
-0.25909
-0.247605
-0.102781
-0.161527
-0.16869
-0.167942
-0.150978
-0.129507
-0.0934424
-0.0617146
-0.0355214
-0.0185463
-0.00220864
0.0102876
0.0209896
0.0296787
0.0369325
0.042931
0.0479292
0.0520961
0.0555743
0.0584792
0.0609032
0.0629213
0.0645937
0.0659691
0.0670861
0.0679753
0.0686606
0.0691598
0.0694857
0.0696474
0.00975221
0.00965977
0.0094736
0.00919439
0.0088229
0.00836106
0.00781198
0.00718045
0.00647404
0.00570446
0.00488957
0.00405677
0.00324536
0.00251241
0.0019501
0.00161975
0.00179717
0.00249732
0.00435101
0.00738535
0.0131702
0.0188288
0.0355455
0.012868
0.00300123
-0.0276646
-0.122186
-0.218146
-0.22162
-0.0683425
-0.180309
-0.186699
-0.172402
-0.154309
-0.139658
-0.127521
-0.0957025
-0.0667403
-0.0405337
-0.0244592
-0.00799199
0.00446132
0.0154101
0.024325
0.0318597
0.038122
0.0433758
0.0477755
0.0514641
0.0545562
0.0571448
0.059306
0.0611011
0.0625805
0.0637842
0.0647437
0.0654843
0.0660241
0.066377
0.0665521
0.00912426
0.00905702
0.00892236
0.00872359
0.00846569
0.00815662
0.00780773
0.00743494
0.00706083
0.00671706
0.0064482
0.00631803
0.00641346
0.00685409
0.00782422
0.00949657
0.0123404
0.0165369
0.0231706
0.0323411
0.0472837
0.0638153
0.0989645
0.0938597
0.10387
0.103469
0.124519
0.170899
0.130962
0.0579018
0.0710947
-0.162202
-0.16526
-0.141718
-0.12883
-0.122983
-0.0945414
-0.0684423
-0.0425566
-0.0276922
-0.0113863
0.000653774
0.0115395
0.0203945
0.027979
0.0343069
0.0396535
0.0441506
0.0479385
0.0511268
0.0538055
0.0560492
0.0579182
0.0594623
0.0607214
0.0617269
0.062504
0.0630713
0.0634423
0.0636266
0.00856577
0.00852217
0.00843571
0.00831201
0.00815958
0.00799143
0.00782576
0.00768784
0.00761238
0.00764731
0.00785815
0.00833529
0.00920161
0.0106229
0.0128566
0.0161552
0.021137
0.0280729
0.038434
0.0522351
0.0742996
0.099279
0.149332
0.162953
0.197525
0.240065
0.227577
-0.0469083
-0.253603
-0.19061
-0.166341
-0.112188
-0.139251
-0.127755
-0.118626
-0.115838
-0.0905143
-0.0670583
-0.0418027
-0.0284389
-0.0126012
-0.00128586
0.00928868
0.0178297
0.0252554
0.0314649
0.036753
0.04122
0.0450014
0.0481978
0.0508941
0.0531607
0.0550552
0.0566248
0.0579079
0.0589348
0.0597299
0.060311
0.0606917
0.0608809
0.00805272
0.00803009
0.0079863
0.00792868
0.00786845
0.00782237
0.00781357
0.00787411
0.00804707
0.00839132
0.00898578
0.00993618
0.0113871
0.0135315
0.0166703
0.0210925
0.0275079
0.0361871
0.048864
0.0653179
0.0915475
0.121316
0.179647
0.210987
0.273833
0.333068
0.153078
0.0305409
-0.163064
-0.440435
-0.211471
-0.0876281
-0.114551
-0.112526
-0.108837
-0.106788
-0.0839503
-0.0628052
-0.0385411
-0.0268517
-0.0118119
-0.00150718
0.00854338
0.0165534
0.0236327
0.0295529
0.034643
0.0389616
0.0426384
0.0457605
0.0484059
0.0506391
0.0525127
0.0540701
0.055347
0.0563716
0.0571665
0.0577485
0.0581302
0.0583202
0.00756386
0.00755871
0.00755033
0.00754715
0.00756202
0.00761396
0.00772892
0.00794288
0.00830306
0.00887311
0.00973647
0.0110044
0.0128284
0.015405
0.0190434
0.0240248
0.0310837
0.0404071
0.0538136
0.070709
0.0975097
0.127398
0.184396
0.227019
0.305137
0.423367
0.362107
-0.0460437
-0.465994
-0.358834
-0.0951438
-0.093759
-0.106446
-0.100763
-0.0997102
-0.0968838
-0.0753271
-0.0558776
-0.033114
-0.023165
-0.0092021
-0.000150189
0.00916461
0.0164558
0.0230284
0.0285107
0.0332745
0.0373369
0.04082
0.043793
0.0463251
0.0484729
0.0502829
0.0517934
0.053036
0.0540359
0.0548136
0.0553842
0.055759
0.0559457
0.00708159
0.00708991
0.00710858
0.00714652
0.00721715
0.00734022
0.00754251
0.00786064
0.00834176
0.00904808
0.0100609
0.0114875
0.0134699
0.0161863
0.0199222
0.0249108
0.0318492
0.0407724
0.0533915
0.0686273
0.0925048
0.117756
0.16395
0.207087
0.275856
0.372143
0.233003
-0.281568
-0.4071
-0.148544
-0.0792831
-0.106369
-0.104685
-0.0934587
-0.0920976
-0.0863748
-0.0650132
-0.0464807
-0.0258163
-0.0176419
-0.0050246
0.00262116
0.0109959
0.0173885
0.0233153
0.0282407
0.0325781
0.0362908
0.0395025
0.0422608
0.0446251
0.046642
0.0483504
0.0497826
0.0509656
0.051921
0.0526662
0.0532142
0.0535748
0.0537547
0.00659256
0.00661015
0.00664714
0.00671227
0.00681856
0.0069853
0.0072381
0.00761081
0.00814722
0.00890417
0.00995456
0.0113916
0.0133352
0.0159298
0.0194121
0.0239391
0.0301185
0.0377972
0.0484512
0.0604882
0.0790391
0.0963932
0.126763
0.16005
0.198506
0.220366
0.0911459
-0.21676
-0.253167
-0.15295
-0.123817
-0.117748
-0.105682
-0.0912504
-0.0863846
-0.0746031
-0.0530331
-0.0348493
-0.0168818
-0.0105413
0.000447932
0.00658427
0.0138678
0.0192264
0.0243808
0.0286363
0.0324615
0.0357525
0.0386282
0.0411178
0.0432692
0.0451171
0.0466921
0.0480199
0.0491219
0.0500154
0.0507148
0.0512304
0.0515705
0.0517405
0.00608781
0.00611053
0.00615731
0.00623613
0.00635889
0.00654316
0.00681127
0.00719284
0.00772588
0.00845822
0.0094491
0.010771
0.0125143
0.0147809
0.0177445
0.0214716
0.0264526
0.0323572
0.0403826
0.0485134
0.0609248
0.0696581
0.0847489
0.104859
0.114296
0.0981374
0.106214
-0.191011
-0.306608
-0.208622
-0.171091
-0.141491
-0.111553
-0.090848
-0.0816165
-0.0604209
-0.0391251
-0.0212578
-0.00655244
-0.00213155
0.00695218
0.0114872
0.0175443
0.0217785
0.0260722
0.0295813
0.0328239
0.0356357
0.0381295
0.0403084
0.0422122
0.0438619
0.0452788
0.0464814
0.0474852
0.0483032
0.0489459
0.0494215
0.0497358
0.0498933
0.0055627
0.00558672
0.00563545
0.00571581
0.00583788
0.00601622
0.00626924
0.00662129
0.00710242
0.00774896
0.00860377
0.0097163
0.0111441
0.012945
0.0152256
0.0179648
0.0215323
0.0254595
0.0306924
0.035002
0.0418014
0.0433072
0.0470886
0.0569063
0.0511695
0.0290026
0.167578
-0.027456
-0.361806
-0.208219
-0.205001
-0.172741
-0.126062
-0.097728
-0.0750704
-0.0427864
-0.0230233
-0.00608394
0.00486929
0.00726627
0.0142046
0.0170654
0.0217783
0.0248293
0.0282075
0.0309312
0.0335543
0.0358478
0.0379287
0.0397713
0.0414036
0.042835
0.0440766
0.0451393
0.0460328
0.046765
0.0473433
0.0477727
0.0480575
0.0482005
0.00501648
0.00503854
0.00508257
0.00515422
0.00526108
0.00541446
0.00562848
0.00592123
0.00631366
0.00682977
0.00749575
0.00833891
0.00938491
0.0106506
0.0121807
0.0138795
0.0160078
0.0180125
0.0206582
0.0217168
0.0241055
0.0206516
0.0175928
0.0214437
0.0116401
-0.00675973
0.151189
0.23682
-0.261832
-0.245799
-0.233165
-0.162054
-0.127868
-0.11649
-0.0625352
-0.0212246
-0.00466336
0.0101459
0.01698
0.0172519
0.0218737
0.0230303
0.0263204
0.0281679
0.0306058
0.0325338
0.0345284
0.036293
0.0379459
0.0394401
0.0407906
0.0419922
0.0430488
0.0439633
0.044739
0.0453794
0.0458881
0.0462677
0.0465202
0.0466475
0.0044518
0.00446931
0.00450344
0.00455822
0.00463881
0.00475331
0.00491126
0.00512409
0.00540354
0.0057619
0.00621013
0.00675609
0.00739733
0.00811677
0.00890681
0.00961596
0.0104137
0.0107141
0.0111595
0.00968641
0.00891083
0.00254011
-0.00423805
-0.0036018
-0.0145314
-0.0321209
0.0715362
0.297624
0.0109508
-0.292825
-0.271538
-0.18381
-0.171265
-0.121168
-0.0373839
0.00427328
0.015751
0.0267178
0.0292555
0.0273437
0.0295784
0.0290637
0.0309139
0.0315853
0.0330943
0.0342449
0.0356238
0.036871
0.0381028
0.039249
0.0403179
0.0412893
0.0421583
0.042922
0.0435774
0.0441234
0.0445603