/*--------------------------------*- C++ -*----------------------------------*\
  =========                 |
  \\      /  F ield         | OpenFOAM: The Open Source CFD Toolbox
   \\    /   O peration     | Website:  https://openfoam.org
    \\  /    A nd           | Version:  12
     \\/     M anipulation  |
\*---------------------------------------------------------------------------*/
FoamFile
{
    format      ascii;
    class       surfaceScalarField;
    location    "360";
    object      phi;
}
// * * * * * * * * * * * * * * * * * * * * * * * * * * * * * * * * * * * * * //

dimensions      [0 3 -1 0 0 0 0];

internalField   nonuniform List<scalar> 
32440
(
-5.01018e-07
0.0399885
1.00042e-06
0.0399885
-1.4964e-06
0.0399905
9.41681e-09
0.0399885
-2.48059e-06
0.0399905
-9.65712e-07
0.0399985
-1.44401e-06
0.0400105
-1.91393e-06
0.0400105
-3.7214e-07
0.0400105
1.18423e-06
0.0400104
2.75909e-06
0.0400104
-1.64438e-06
0.0400044
-2.02458e-06
0.0400004
-2.37552e-06
0.0400004
-2.69265e-06
0.0400003
-2.97105e-06
0.0400003
-3.20571e-06
0.0400002
-3.3917e-06
0.0400002
-3.52427e-06
0.0400001
-3.59921e-06
0.0400001
-3.61297e-06
0.04
-3.56309e-06
0.04
-3.44766e-06
0.0399999
-3.26615e-06
0.0399998
-3.01936e-06
0.0399998
-2.70953e-06
0.0399997
-2.34038e-06
0.0399996
-1.91613e-06
0.0399996
-3.04488e-06
0.0400011
-8.19433e-06
0.0400051
-9.19172e-06
0.040001
-8.82715e-06
0.0399996
-8.25022e-06
0.0399994
-7.67061e-06
0.0399994
-6.09783e-06
0.0399984
-5.54089e-06
0.0399994
-5.00794e-06
0.0399995
-4.50632e-06
0.0399995
-4.04221e-06
0.0399995
-3.62068e-06
0.0399996
-3.2456e-06
0.0399996
-2.91969e-06
0.0399997
-2.64454e-06
0.0399997
-2.42072e-06
0.0399998
-2.24782e-06
0.0399998
-2.12467e-06
0.0399999
-2.04945e-06
0.0399999
-2.01966e-06
0.04
-2.03272e-06
0.04
-2.0854e-06
0.0400001
-2.17424e-06
0.0400001
-4.29573e-06
0.0400021
-1.04459e-05
0.0400061
-4.6214e-06
0.0400062
-8.18691e-07
0.0400082
-1.03405e-06
0.0400102
7.36502e-07
0.0399982
4.96533e-07
0.0399882
2.49716e-07
0.0399902
0.0399882
-1.96018e-06
0.0399905
-3.91499e-06
0.0399905
-5.86465e-06
0.0399924
-7.80613e-06
0.0399904
-7.73539e-06
0.0399904
-7.64864e-06
0.0399984
-7.54018e-06
0.0400104
-9.40292e-06
0.0400123
-9.2271e-06
0.0400103
-7.00366e-06
0.0400082
-4.71521e-06
0.0400081
-1.43495e-05
0.040014
-1.99024e-05
0.0400059
-2.13512e-05
0.0400018
-2.26803e-05
0.0400016
-2.38698e-05
0.0400015
-2.49007e-05
0.0400013
-2.57542e-05
0.040001
-2.64118e-05
0.0400008
-2.68568e-05
0.0400005
-2.70729e-05
0.0400002
-2.70532e-05
0.0399999
-2.67877e-05
0.0399996
-2.62727e-05
0.0399993
-2.55099e-05
0.039999
-2.4306e-05
0.0399985
-2.30734e-05
0.0399984
-2.20302e-05
0.0399985
-2.17978e-05
0.0400009
-2.57107e-05
0.0400091
-2.52798e-05
0.0400006
-2.32592e-05
0.0399976
-2.11761e-05
0.0399973
-1.90657e-05
0.0399973
-1.81624e-05
0.0399975
-1.60998e-05
0.0399974
-1.41063e-05
0.0399975
-1.22098e-05
0.0399976
-1.04331e-05
0.0399978
-8.79531e-06
0.0399979
-7.31118e-06
0.0399981
-5.99131e-06
0.0399984
-4.84227e-06
0.0399986
-3.86691e-06
0.0399988
-1.06486e-06
0.039997
-4.32899e-07
0.0399992
3.46991e-08
0.0399995
3.45629e-07
0.0399997
5.09653e-07
0.0399998
5.37377e-07
0.04
-1.56025e-06
0.0400022
-5.77046e-06
0.0400063
-8.08064e-06
0.0400085
-6.47894e-06
0.0400046
-4.95236e-06
0.0400067
-3.48806e-06
0.0400088
1.9267e-06
0.0399928
-6.95754e-07
0.0399909
6.57065e-07
0.0399889
0.0399889
-3.65127e-06
0.0399941
-7.29507e-06
0.0399941
-8.9307e-06
0.0399941
-1.25534e-05
0.0399941
-1.81564e-05
0.039996
-1.57299e-05
0.039996
-1.92702e-05
0.0400139
-2.07577e-05
0.0400138
-2.21826e-05
0.0400117
-2.35202e-05
0.0400096
-2.47549e-05
0.0400094
-3.58431e-05
0.0400251
-4.0792e-05
0.0400109
-4.35624e-05
0.0400046
-4.61129e-05
0.0400042
-4.84176e-05
0.0400038
-5.04391e-05
0.0400033
-5.21428e-05
0.0400027
-4.94947e-05
0.0399981
-5.44634e-05
0.0400055
-5.50214e-05
0.0400008
-5.51488e-05
0.0400001
-5.48288e-05
0.0399993
-5.40537e-05
0.0399985
-5.28249e-05
0.0399978
-5.11534e-05
0.0399968
-4.906e-05
0.0399963
-4.65723e-05
0.039996
-4.53363e-05
0.0399997
-4.78827e-05
0.0400116
-4.60104e-05
0.0399987
-4.26328e-05
0.0399942
-3.89275e-05
0.0399936
-3.5157e-05
0.0399935
-3.03832e-05
0.0399927
-2.66633e-05
0.0399937
-2.30531e-05
0.0399939
-1.96007e-05
0.0399941
-1.63453e-05
0.0399945
-1.33223e-05
0.0399949
-1.05585e-05
0.0399954
-8.07306e-06
0.0399959
-5.87838e-06
0.0399964
-3.97977e-06
0.0399969
-4.37732e-06
0.0399974
-3.06574e-06
0.0399979
-2.03523e-06
0.0399984
7.26869e-07
0.0399969
1.23663e-06
0.0399993
-4.87817e-07
0.0400017
-2.4267e-06
0.0400041
-1.25577e-05
0.0400165
-6.86309e-06
0.0400028
-5.31916e-06
0.040003
-3.90396e-06
0.0400053
-5.95783e-07
0.0400054
2.62729e-06
0.0399896
1.78627e-06
0.0399917
9.02419e-07
0.0399898
0.0399898
-5.38321e-06
0.0399995
-1.07587e-05
0.0399995
-1.61235e-05
0.0399995
-2.14704e-05
0.0399994
-2.47899e-05
0.0399993
-3.00715e-05
0.0400013
-2.92998e-05
0.0400131
-3.2463e-05
0.040017
-3.55301e-05
0.0400148
-4.04845e-05
0.0400145
-4.52808e-05
0.0400142
-5.38805e-05
0.0400337
-6.22795e-05
0.0400193
-6.84122e-05
0.0400107
-7.22414e-05
0.040008
-7.37031e-05
0.0400052
-7.47582e-05
0.0400043
-6.73603e-05
0.0399953
-6.3456e-05
0.0399942
-7.69545e-05
0.040019
-8.38755e-05
0.0400077
-8.41622e-05
0.0400003
-8.37898e-05
0.0399989
-8.27408e-05
0.0399975
-8.1026e-05
0.039996
-7.86557e-05
0.0399944
-7.56598e-05
0.0399933
-7.22862e-05
0.0399927
-6.95818e-05
0.039997
-7.07156e-05
0.0400127
-6.73033e-05
0.0399953
-6.22977e-05
0.0399892
-5.66948e-05
0.039988
-5.11903e-05
0.039988
-4.68744e-05
0.0399884
-4.14334e-05
0.0399882
-3.61459e-05
0.0399886
-3.10825e-05
0.0399891
-2.4303e-05
0.0399877
-1.98563e-05
0.0399905
-1.57816e-05
0.0399913
-1.21067e-05
0.0399922
-8.84769e-06
0.0399931
-6.01364e-06
0.0399941
-3.60343e-06
0.039995
-1.60901e-06
0.0399959
-1.65252e-08
0.0399968
-8.06214e-07
0.0399977
2.04428e-06
0.0399965
2.56149e-06
0.0400012
-7.22522e-06
0.0400139
-7.28643e-06
0.0400165
-7.59429e-06
0.0400031
-6.11597e-06
0.0400016
-4.82002e-06
0.040004
2.3251e-06
0.0399983
1.3491e-06
0.0399906
2.2827e-06
0.0399908
1.15574e-06
0.0399909
0.039991
-7.06652e-06
0.0400066
-1.41271e-05
0.0400065
-2.11749e-05
0.0400065
-2.82e-05
0.0400064
-3.51954e-05
0.0400063
-4.01419e-05
0.0400062
-3.90237e-05
0.040012
-4.58203e-05
0.0400238
-5.25042e-05
0.0400215
-5.70394e-05
0.0400191
-6.13847e-05
0.0400185
-6.74818e-05
0.0400398
-8.12961e-05
0.0400331
-8.87871e-05
0.0400182
-9.38759e-05
0.0400131
-9.85008e-05
0.0400099
-9.65887e-05
0.0400024
-8.61021e-05
0.0399849
-9.49048e-05
0.040003
-0.000106927
0.040031
-0.000112188
0.040013
-0.000112604
0.0400008
-0.000112149
0.0399985
-0.000110803
0.0399961
-0.000108554
0.0399938
-0.000105428
0.0399913
-0.000101463
0.0399893
-9.67146e-05
0.0399879
-9.28755e-05
0.0399931
-9.25037e-05
0.0400124
-8.7479e-05
0.0399903
-8.0554e-05
0.0399823
-7.35779e-05
0.0399811
-6.6075e-05
0.0399805
-5.79596e-05
0.0399803
-5.075e-05
0.039981
-4.37516e-05
0.0399816
-3.70563e-05
0.0399824
-3.27476e-05
0.0399834
-2.68859e-05
0.0399846
-2.15223e-05
0.0399859
-1.46923e-05
0.0399854
-1.04157e-05
0.0399888
-6.70204e-06
0.0399904
-3.54812e-06
0.0399919
-9.4232e-07
0.0399933
1.13595e-06
0.0399948
2.71242e-06
0.0399961
1.81984e-06
0.0399974
-5.50674e-06
0.0400086
-1.72262e-05
0.0400256
-5.30929e-06
0.0400046
-3.70947e-06
0.0400015
-4.38583e-06
0.0400022
-1.29781e-06
0.0400009
5.59515e-06
0.0399914
4.33271e-06
0.0399918
2.95358e-06
0.0399921
1.49682e-06
0.0399924
0.0399925
-8.68808e-06
0.0400153
-1.53725e-05
0.0400132
-2.40448e-05
0.0400152
-3.26943e-05
0.0400151
-4.13089e-05
0.040015
-4.98716e-05
0.0400148
-5.43607e-05
0.0400165
-5.6752e-05
0.0400262
-6.50145e-05
0.0400297
-7.31038e-05
0.0400271
-7.89827e-05
0.0400244
-6.85881e-05
0.0400294
-9.37748e-05
0.0400583
-0.000108605
0.040033
-0.000116949
0.0400215
-0.000120724
0.0400136
-0.000117858
0.0399996
-0.000118253
0.0399853
-0.000125764
0.0400106
-0.000136334
0.0400416
-0.000139938
0.0400166
-0.000140481
0.0400013
-0.000139917
0.0399979
-0.000138218
0.0399944
-0.000135376
0.039991
-0.000131428
0.0399874
-0.000126217
0.0399841
-0.000120624
0.0399823
-0.000115131
0.0399876
-0.00011316
0.0400104
-0.00010641
0.0399835
-9.78701e-05
0.0399738
-8.86201e-05
0.0399718
-7.96163e-05
0.0399715
-7.14216e-05
0.0399721
-6.23829e-05
0.039972
-5.16277e-05
0.0399708
-4.32742e-05
0.039974
-3.54227e-05
0.0399756
-2.81521e-05
0.0399773
-2.15237e-05
0.0399793
-1.75754e-05
0.0399814
-1.23346e-05
0.0399836
-5.80703e-06
0.0399838
-1.98573e-06
0.039988
1.14707e-06
0.0399902
3.61924e-06
0.0399923
5.46608e-06
0.0399943
4.72929e-06
0.0399981
-4.54281e-06
0.0400178
-2.30391e-06
0.0400234
-5.11512e-07
0.0400028
-1.10847e-06
0.0400021
-4.40524e-08
0.0400012
8.73363e-06
0.0399921
7.27169e-06
0.0399929
5.62012e-06
0.0399935
3.82686e-06
0.0399939
1.93936e-06
0.0399942
0.0399944
-1.02508e-05
0.0400255
-2.05039e-05
0.0400235
-3.07454e-05
0.0400254
-4.0965e-05
0.0400253
-5.11506e-05
0.0400251
-6.12836e-05
0.0400249
-6.93405e-05
0.0400246
-7.12848e-05
0.0400281
-7.90961e-05
0.0400375
-8.67167e-05
0.0400348
-9.60965e-05
0.0400338
-0.000101174
0.0400345
-0.000107799
0.0400649
-0.000129977
0.0400552
-0.000137603
0.0400291
-0.00013856
0.0400146
-0.000124794
0.0399858
-0.000146071
0.0400065
-0.000154316
0.0400188
-0.000163439
0.0400507
-0.000167392
0.0400205
-0.000168054
0.040002
-0.000167365
0.0399972
-0.000165278
0.0399923
-0.000161812
0.0399875
-0.00015677
0.0399823
-0.000150819
0.0399782
-0.000143447
0.039975
-0.000136594
0.0399808
-0.000132893
0.0400067
-0.000124265
0.0399749
-0.000113575
0.0399631
-0.000102718
0.0399609
-9.1302e-05
0.0399601
-7.93208e-05
0.0399601
-6.83558e-05
0.039961
-5.97695e-05
0.0399622
-4.97079e-05
0.039964
-4.02884e-05
0.0399661
-2.96062e-05
0.0399667
-2.17276e-05
0.0399714
-1.46995e-05
0.0399744
-8.54558e-06
0.0399774
-5.26925e-06
0.0399805
1.13974e-06
0.0399816
4.711e-06
0.0399866
7.48082e-06
0.0399895
9.49569e-06
0.0399922
-1.18741e-06
0.0400088
-1.65059e-05
0.0400331
1.57394e-06
0.0400053
3.13034e-06
0.0400013
4.22763e-06
0.040001
1.09254e-05
0.0399945
9.28365e-06
0.0399937
7.36123e-06
0.0399948
5.21635e-06
0.0399956
2.90552e-06
0.0399963
2.48486e-06
0.0399947
0.0399969
-9.75163e-06
0.0400353
-2.35178e-05
0.0400372
-3.52729e-05
0.0400372
-4.50082e-05
0.040035
-5.67168e-05
0.0400369
-6.8378e-05
0.0400366
-7.99634e-05
0.0400362
-8.74494e-05
0.0400356
-9.27861e-05
0.0400429
-0.000103931
0.0400459
-0.000114811
0.0400447
-0.000121388
0.0400411
-0.00010754
0.0400511
-0.000138996
0.0400867
-0.000161932
0.040052
-0.000166102
0.0400188
-0.000165432
0.0399851
-0.00017367
0.0400148
-0.00018073
0.0400259
-0.000190457
0.0400604
-0.000194768
0.0400248
-0.000195574
0.0400028
-0.000194743
0.0399964
-0.000192266
0.0399899
-0.000188098
0.0399833
-0.000182268
0.0399765
-0.00017487
0.0399708
-0.000166017
0.0399661
-0.000157643
0.0399724
-0.000151822
0.0400009
-0.000141165
0.0399642
-0.00012853
0.0399504
-0.000115296
0.0399477
-0.000101911
0.0399467
-8.76025e-05
0.0399458
-7.45919e-05
0.039948
-6.20883e-05
0.0399497
-5.02511e-05
0.0399521
-3.92236e-05
0.0399551
-3.1112e-05
0.0399585
-1.99983e-05
0.0399603
-1.19246e-05
0.0399663
-4.9128e-06
0.0399704
1.03807e-06
0.0399746
5.95024e-06
0.0399767
9.86155e-06
0.0399827
1.28216e-05
0.0399866
1.08947e-05
0.0399942
1.48186e-07
0.0400195
2.65187e-06
0.0400306
6.4619e-06
0.0400015
7.66708e-06
0.0400001
1.63405e-05
0.0399923
1.65561e-05
0.0399942
1.43818e-05
0.0399959
1.18869e-05
0.0399973
9.13836e-06
0.0399984
6.20101e-06
0.0399992
3.13845e-06
0.0399977
0.04
-1.31954e-05
0.0400485
-2.64105e-05
0.0400505
-3.76192e-05
0.0400484
-5.28242e-05
0.0400502
-6.40044e-05
0.040048
-7.71514e-05
0.0400497
-9.02378e-05
0.0400492
-0.000103231
0.0400486
-0.000108069
0.0400477
-0.000118728
0.0400566
-0.000131129
0.0400571
-0.000143178
0.0400531
-0.000148785
0.0400567
-0.000167718
0.0401056
-0.000180009
0.0400643
-0.000179488
0.0400182
-0.000191972
0.0399976
-0.000201254
0.0400241
-0.000207177
0.0400318
-0.000217554
0.0400708
-0.000222314
0.0400296
-0.000223277
0.0400037
-0.000222331
0.0399954
-0.00021941
0.0399869
-0.000214478
0.0399784
-0.000207598
0.0399696
-0.000198821
0.039962
-0.000188488
0.0399558
-0.000177807
0.0399617
-0.000170086
0.0399932
-0.00015716
0.0399513
-0.000142174
0.0399355
-0.000126347
0.0399319
-0.000110576
0.039931
-9.61634e-05
0.0399314
-8.09637e-05
0.0399328
-6.64155e-05
0.0399352
-5.07209e-05
0.0399364
-3.8034e-05
0.0399424
-2.64795e-05
0.039947
-1.81347e-05
0.039952
-7.05548e-06
0.0399552
7.50639e-07
0.0399626
7.29396e-06
0.0399681
1.061e-05
0.0399734
1.6747e-05
0.0399766
1.77808e-05
0.0399855
5.78735e-06
0.0400062
-1.31313e-05
0.0400385
1.3042e-05
0.0400045
1.44446e-05
0.0400001
2.31677e-05
0.0399913
2.12894e-05
0.0399942
1.8895e-05
0.0399966
1.60649e-05
0.0399987
1.28767e-05
0.0400005
1.14068e-05
0.0399998
7.72629e-06
0.0400029
1.90619e-06
0.0400035
0.0400019
-1.45715e-05
0.040063
-2.71703e-05
0.0400631
-4.37813e-05
0.040065
-5.63885e-05
0.0400629
-7.29991e-05
0.0400646
-8.75886e-05
0.0400643
-0.000100134
0.0400618
-0.000114609
0.0400631
-0.000128965
0.0400621
-0.000133118
0.0400607
-0.000145037
0.040069
-0.000160609
0.0400687
-0.000171715
0.0400678
-0.000174182
0.0401081
-0.000189921
0.0400801
-0.000180847
0.0400092
-0.000212552
0.0400293
-0.000224939
0.0400364
-0.000235832
0.0400427
-0.000242972
0.040078
-0.000248228
0.0400349
-0.000251398
0.0400069
-0.000250365
0.0399944
-0.000246981
0.0399836
-0.00024126
0.0399727
-0.000233178
0.0399615
-0.000222671
0.0399515
-0.000210502
0.0399436
-0.000197867
0.0399491
-0.000187762
0.039983
-0.000172099
0.0399356
-0.000154489
0.0399178
-0.0001364
0.0399138
-0.00011781
0.0399124
-9.88693e-05
0.0399125
-8.12911e-05
0.0399152
-6.45549e-05
0.0399184
-5.08886e-05
0.0399228
-3.44829e-05
0.039926
-2.14586e-05
0.039934
-9.90447e-06
0.0399404
-1.85933e-06
0.0399472
8.66402e-06
0.0399521
1.57012e-05
0.039961
2.13024e-05
0.0399678
2.35424e-05
0.0399743
2.45048e-05
0.0399846
1.62974e-05
0.0400144
1.70258e-05
0.0400377
2.27497e-05
0.0399987
3.16091e-05
0.0399912
2.9704e-05
0.0399932
2.71329e-05
0.0399967
2.39926e-05
0.0399998
2.03734e-05
0.0400024
1.83631e-05
0.0400025
1.20432e-05
0.0400062
9.49635e-06
0.0400054
4.79747e-06
0.0400082
0.0400067
-1.5876e-05
0.0400789
-3.17962e-05
0.040079
-4.57294e-05
0.0400789
-6.36913e-05
0.0400808
-7.7659e-05
0.0400786
-9.36483e-05
0.0400803
-0.000109622
0.0400778
-0.000125556
0.040079
-0.000141402
0.0400779
-0.000157099
0.0400764
-0.000162549
0.0400744
-0.000175684
0.0400818
-0.000188443
0.0400805
-0.000166606
0.0400862
-0.000203701
0.0401172
-0.000224084
0.0400296
-0.000241173
0.0400464
-0.000252862
0.0400481
-0.000258867
0.0400487
-0.000260919
0.04008
-0.000276772
0.0400507
-0.000280247
0.0400104
-0.000279132
0.0399933
-0.000275324
0.0399798
-0.000268704
0.039966
-0.000259349
0.0399522
-0.000247327
0.0399395
-0.000233039
0.0399293
-0.000217788
0.0399338
-0.000204994
0.0399703
-0.000186653
0.0399173
-0.00016605
0.0398972
-0.000144577
0.0398923
-0.000123455
0.0398912
-0.000103508
0.0398925
-8.33314e-05
0.039895
-6.2237e-05
0.0398974
-4.44839e-05
0.039905
-3.0275e-05
0.0399118
-1.37618e-05
0.0399175
-1.01507e-06
0.0399277
9.92936e-06
0.0399362
1.90844e-05
0.039943
2.64983e-05
0.0399536
3.22485e-05
0.039962
3.24379e-05
0.0399741
1.51907e-05
0.0400018
4.61962e-06
0.0400249
3.0801e-05
0.0400116
3.99005e-05
0.0399896
4.00462e-05
0.0399911
3.73536e-05
0.0399959
3.39356e-05
0.0400002
3.19009e-05
0.0400018
2.7347e-05
0.0400069
2.03744e-05
0.0400095
1.70724e-05
0.0400095
9.52443e-06
0.040013
5.81762e-06
0.040012
0.0400125
-1.71007e-05
0.040096
-3.42621e-05
0.0400961
-5.14554e-05
0.0400961
-6.66865e-05
0.0400961
-8.59751e-05
0.0400979
-0.000101298
0.0400956
-0.000120662
0.0400971
-0.000136013
0.0400944
-0.000153345
0.0400953
-0.00017057
0.0400936
-0.000187614
0.0400915
-0.000194346
0.0400886
-0.000208686
0.0400949
-0.000216515
0.0400941
-0.000223383
0.040124
-0.000253316
0.0400595
-0.000267994
0.0400611
-0.000277156
0.0400573
-0.000280508
0.040052
-0.000259741
0.0400592
-0.000292209
0.0400832
-0.000308086
0.0400263
-0.000309009
0.0399942
-0.000304753
0.0399755
-0.000297219
0.0399585
-0.000286218
0.0399412
-0.000272453
0.0399257
-0.000255608
0.0399125
-0.000237776
0.039916
-0.000221864
0.0399543
-0.000200225
0.0398957
-0.000176039
0.0398731
-0.000151548
0.0398678
-0.00012673
0.0398664
-0.000101867
0.0398677
-7.88104e-05
0.039872
-5.91344e-05
0.0398777
-3.71556e-05
0.039883
-1.9073e-05
0.0398937
-5.03659e-06
0.0399034
1.08661e-05
0.0399118
2.26343e-05
0.0399245
3.03045e-05
0.0399353
3.99466e-05
0.039944
4.36837e-05
0.0399583
3.56485e-05
0.0399822
1.40181e-05
0.0400234
3.28304e-05
0.0400061
5.23023e-05
0.0399921
5.25978e-05
0.0399894
4.98494e-05
0.0399938
4.61912e-05
0.0399996
4.176e-05
0.0400046
3.66676e-05
0.0400069
3.10269e-05
0.0400126
2.69442e-05
0.0400135
2.05138e-05
0.0400159
1.38278e-05
0.0400196
6.97405e-06
0.0400188
0.0400195
-1.8236e-05
0.0401142
-3.65518e-05
0.0401145
-5.4918e-05
0.0401145
-7.33544e-05
0.0401145
-8.98693e-05
0.0401144
-0.00010848
0.0401142
-0.000127175
0.0401158
-0.000145934
0.0401131
-0.000164723
0.040114
-0.000183482
0.0401124
-0.000200114
0.0401081
-0.000218552
0.040107
-0.000228609
0.0401049
-0.000242257
0.0401077
-0.000225216
0.040107
-0.000266736
0.040101
-0.000291089
0.0400854
-0.000305886
0.0400721
-0.000314758
0.0400609
-0.000313234
0.0400577
-0.000332758
0.0401027
-0.000341271
0.0400348
-0.000340342
0.0399933
-0.000335683
0.0399708
-0.000327196
0.03995
-0.000314796
0.0399288
-0.000298681
0.0399096
-0.000279273
0.0398931
-0.00025803
0.0398948
-0.000238542
0.0399349
-0.000213091
0.0398702
-0.000185169
0.0398451
-0.000156382
0.039839
-0.000127986
0.039838
-0.000101602
0.0398413
-7.3357e-05
0.0398437
-4.88713e-05
0.0398532
-2.84833e-05
0.0398627
-6.44855e-06
0.0398717
1.11082e-05
0.0398859
2.41263e-05
0.0398988
3.8607e-05
0.03991
4.86419e-05
0.0399252
5.63391e-05
0.0399363
5.58642e-05
0.0399588
4.7395e-05
0.0399907
4.90886e-05
0.0400217
6.7112e-05
0.0399881
6.76795e-05
0.0399915
6.49563e-05
0.0399921
6.11097e-05
0.0399977
5.62977e-05
0.0400044
5.26658e-05
0.0400082
4.43409e-05
0.0400152
3.94483e-05
0.0400174
3.00941e-05
0.0400229
2.23846e-05
0.0400236
1.64152e-05
0.0400256
8.2725e-06
0.040027
0.0400278
-1.92699e-05
0.0401335
-3.6632e-05
0.0401318
-5.60783e-05
0.0401339
-7.56264e-05
0.040134
-9.53032e-05
0.0401341
-0.000115126
0.0401341
-0.0001351
0.0401358
-0.000155215
0.0401332
-0.000175445
0.0401343
-0.000193733
0.0401307
-0.000216022
0.0401304
-0.000236185
0.0401272
-0.000254075
0.0401228
-0.00026352
0.0401172
-0.000278388
0.0401218
-0.00030003
0.0401227
-0.000318476
0.0401039
-0.000333238
0.0400869
-0.000345874
0.0400735
-0.000355938
0.0400678
-0.000368803
0.0401156
-0.000374201
0.0400402
-0.000373611
0.0399927
-0.000368678
0.0399659
-0.000359161
0.0399405
-0.000345056
0.0399147
-0.00032623
0.0398908
-0.00030369
0.0398705
-0.000278883
0.0398699
-0.000255204
0.0399112
-0.000225269
0.0398403
-0.000192559
0.0398124
-0.000159458
0.0398059
-0.000126748
0.0398053
-9.43697e-05
0.0398089
-6.65316e-05
0.0398159
-3.69603e-05
0.0398236
-1.2004e-05
0.0398377
8.08432e-06
0.0398516
2.91522e-05
0.0398648
4.51937e-05
0.0398827
5.82539e-05
0.0398969
6.84622e-05
0.039915
7.00026e-05
0.0399347
5.11122e-05
0.0399777
3.99789e-05
0.0400018
7.67038e-05
0.039985
8.36598e-05
0.0399812
8.106e-05
0.0399941
7.90742e-05
0.0399941
7.39098e-05
0.0400029
6.77303e-05
0.0400106
6.06993e-05
0.0400153
5.29578e-05
0.040023
4.46355e-05
0.0400258
3.78503e-05
0.0400297
2.87043e-05
0.0400328
1.92954e-05
0.040035
9.71715e-06
0.0400365
0.0400375
-2.01897e-05
0.0401537
-4.05047e-05
0.0401521
-6.09194e-05
0.0401544
-8.14769e-05
0.0401546
-0.000102216
0.0401548
-0.000123167
0.040155
-0.000142341
0.040155
-0.00016376
0.0401547
-0.000183383
0.0401539
-0.000207225
0.0401545
-0.00022716
0.0401503
-0.000249107
0.0401491
-0.000270951
0.0401447
-0.000292462
0.0401387
-0.000305379
0.0401348
-0.000325375
0.0401427
-0.000344145
0.0401227
-0.000361248
0.040104
-0.000376112
0.0400884
-0.000388152
0.0400798
-0.000400739
0.0401282
-0.000409349
0.0400488
-0.000409383
0.0399927
-0.000404327
0.0399609
-0.000393844
0.03993
-0.000377795
0.0398986
-0.000356374
0.0398694
-0.000329913
0.0398441
-0.000300718
0.0398408
-0.000272036
0.0398825
-0.000236812
0.039805
-0.000198932
0.0397745
-0.000160528
0.0397675
-0.000122828
0.0397676
-8.56887e-05
0.0397718
-5.18335e-05
0.039782
-2.28316e-05
0.0397946
6.87882e-06
0.039808
3.10715e-05
0.0398274
5.16302e-05
0.0398442
6.85656e-05
0.0398658
8.20088e-05
0.0398835
9.01496e-05
0.0399069
7.92792e-05
0.0399456
5.57063e-05
0.0400012
8.74635e-05
0.03997
0.000102982
0.0399695
0.000100613
0.0399835
0.000100562
0.0399942
9.30531e-05
0.0400016
8.83126e-05
0.0400076
8.05413e-05
0.0400183
7.19e-05
0.0400239
6.45465e-05
0.0400303
5.26099e-05
0.0400377
4.22171e-05
0.0400401
3.14723e-05
0.0400435
2.24756e-05
0.040044
1.131e-05
0.0400477
0.0400488
-1.89712e-05
0.0401727
-4.21138e-05
0.0401753
-6.33759e-05
0.0401756
-8.28157e-05
0.040174
-0.000104507
0.0401765
-0.000126481
0.040177
-0.000148794
0.0401773
-0.000171449
0.0401773
-0.000194455
0.0401769
-0.000215786
0.0401759
-0.000241416
0.040176
-0.000265231
0.0401729
-0.000287096
0.0401665
-0.000310821
0.0401624
-0.000332179
0.0401561
-0.00034873
0.0401592
-0.000372188
0.0401461
-0.000390002
0.0401218
-0.00040756
0.040106
-0.00042017
0.0400924
-0.000419032
0.040127
-0.000443298
0.0400731
-0.000448351
0.0399978
-0.000443442
0.0399559
-0.000432048
0.0399186
-0.000413945
0.0398805
-0.000389236
0.0398446
-0.000358669
0.0398135
-0.000323979
0.0398061
-0.000289373
0.0398479
-0.000247825
0.0397635
-0.000203526
0.0397302
-0.000158704
0.0397227
-0.000115175
0.0397241
-7.49791e-05
0.0397316
-3.45933e-05
0.0397417
1.67129e-07
0.0397599
3.0844e-05
0.0397773
5.71967e-05
0.0398011
7.91526e-05
0.0398223
9.68038e-05
0.0398481
0.000108366
0.0398719
0.000114132
0.0399011
0.000104488
0.0399552
0.000117717
0.039988
0.000126101
0.0399616
0.000126134
0.0399695
0.000120141
0.0399895
0.000118286
0.039996
0.000112958
0.0400069
0.000104379
0.0400162
9.47616e-05
0.040028
8.42857e-05
0.0400344
7.31067e-05
0.0400415
6.33782e-05
0.0400474
5.12045e-05
0.0400522
3.86975e-05
0.040056
2.39478e-05
0.0400588
1.30499e-05
0.0400586
0.0400619
-2.16265e-05
0.0401943
-4.34367e-05
0.0401971
-6.33967e-05
0.0401956
-8.76134e-05
0.0401983
-0.000108119
0.040197
-0.000131012
0.0401999
-0.000154339
0.0402006
-0.000178144
0.0402011
-0.000202455
0.0402012
-0.000227264
0.0402007
-0.000250569
0.0401993
-0.000276292
0.0401987
-0.000302298
0.0401925
-0.000328457
0.0401886
-0.000354446
0.0401821
-0.000379952
0.0401847
-0.000396479
0.0401626
-0.000421537
0.0401468
-0.000438406
0.0401228
-0.000448365
0.0401024
-0.000420409
0.0400991
-0.000466748
0.0401194
-0.000489367
0.0400204
-0.000487006
0.0399536
-0.000474867
0.0399065
-0.000454561
0.0398602
-0.000426124
0.0398162
-0.000390157
0.0397775
-0.000349339
0.0397652
-0.000307513
0.0398061
-0.000258344
0.0397143
-0.000206149
0.039678
-0.000154145
0.0396707
-0.000103796
0.0396737
-5.55677e-05
0.0396833
-1.40182e-05
0.0397001
2.68854e-05
0.039719
5.87252e-05
0.0397455
8.92252e-05
0.0397706
0.000110431
0.0398011
0.00013052
0.039828
0.000137863
0.0398646
0.000114977
0.039924
0.000110175
0.03996
0.000147646
0.0399505
0.000158212
0.0399511
0.000154274
0.0399734
0.000148215
0.0399956
0.00014026
0.040004
0.000132808
0.0400144
0.000120114
0.0400289
0.000110398
0.0400377
9.78529e-05
0.0400469
8.46465e-05
0.0400547
7.09194e-05
0.0400612
5.67893e-05
0.0400664
4.43618e-05
0.0400684
2.97158e-05
0.0400734
1.49331e-05
0.0400734
0.0400768
-2.2113e-05
0.0402164
-4.44404e-05
0.0402194
-6.69616e-05
0.0402181
-8.77618e-05
0.0402191
-0.000112968
0.0402222
-0.000134623
0.0402215
-0.000158844
0.0402248
-0.00018369
0.040226
-0.000209218
0.0402267
-0.000235464
0.0402269
-0.000262434
0.0402262
-0.000288084
0.0402243
-0.000318361
0.0402228
-0.000345068
0.0402153
-0.000373997
0.040211
-0.000402757
0.0402135
-0.000430907
0.0401908
-0.000449791
0.0401657
-0.000474692
0.0401477
-0.000494614
0.0401223
-0.000498447
0.0401029
-0.000524319
0.0401453
-0.000539449
0.0400355
-0.000536342
0.0399505
-0.000523782
0.0398939
-0.00050108
0.0398375
-0.0004683
0.0397834
-0.000426372
0.0397356
-0.000377608
0.0397165
-0.000326927
0.0397554
-0.000268419
0.0396558
-0.000206942
0.0396166
-0.000146289
0.0396101
-8.77167e-05
0.0396152
-3.25035e-05
0.0396281
1.68499e-05
0.0396508
6.03352e-05
0.0396755
9.74658e-05
0.0397083
0.000128067
0.03974
0.000152267
0.0397769
0.000166433
0.0398139
0.000161127
0.0398699
0.000137081
0.0399481
0.000172255
0.0399249
0.00019162
0.0399312
0.000189923
0.0399528
0.000181596
0.0399817
0.000175003
0.0400022
0.00016657
0.0400124
0.000152645
0.0400283
0.000141518
0.04004
0.000127426
0.0400518
0.000112572
0.0400618
9.71215e-05
0.0400702
8.3216e-05
0.0400751
6.69581e-05
0.0400826
4.84406e-05
0.040087
3.37543e-05
0.0400881
1.49459e-05
0.0400922
0.0400917
-2.24219e-05
0.0402388
-4.30771e-05
0.0402401
-6.79879e-05
0.040243
-9.1231e-05
0.0402423
-0.000112923
0.0402439
-0.000139213
0.0402478
-0.000162154
0.0402478
-0.000187911
0.0402517
-0.000212526
0.0402514
-0.000240108
0.0402545
-0.000268681
0.0402548
-0.000298298
0.0402539
-0.000328882
0.0402534
-0.000360332
0.0402467
-0.000392449
0.0402432
-0.000422888
0.0402439
-0.000455185
0.0402231
-0.000488717
0.0401993
-0.000512474
0.0401715
-0.0005375
0.0401473
-0.00055627
0.0401217
-0.000559042
0.040148
-0.000587899
0.0400644
-0.000593048
0.0399556
-0.000580625
0.0398815
-0.000555545
0.0398124
-0.000517696
0.0397456
-0.000467966
0.0396859
-0.000409814
0.0396583
-0.000348194
0.0396938
-0.000278151
0.0395858
-0.000205489
0.0395439
-0.000133817
0.0395384
-6.57765e-05
0.0395471
-4.67859e-06
0.039567
5.32096e-05
0.0395929
9.97448e-05
0.0396289
0.00014231
0.0396658
0.000170862
0.0397114
0.000189698
0.039758
0.000201365
0.0398022
0.000202731
0.0398685
0.000218437
0.0399324
0.000231181
0.0399121
0.000231943
0.0399304
0.000221414
0.0399633
0.000210204
0.0399929
0.000204561
0.0400078
0.000191182
0.0400258
0.000178415
0.040041
0.000162534
0.0400559
0.00014579
0.0400685
0.000128377
0.0400792
0.000112483
0.0400861
9.22005e-05
0.0400954
7.56564e-05
0.0400992
5.69143e-05
0.0401057
3.80433e-05
0.040107
1.90917e-05
0.0401111
0.0401108
-2.25369e-05
0.0402614
-4.53499e-05
0.0402629
-6.6417e-05
0.0402641
-8.98983e-05
0.0402658
-0.000115933
0.04027
-0.00013862
0.0402705
-0.000164139
0.0402733
-0.000190618
0.0402782
-0.000218188
0.0402789
-0.000246976
0.0402833
-0.000277085
0.0402849
-0.000308589
0.0402854
-0.000339503
0.0402843
-0.000373791
0.040281
-0.000407347
0.0402767
-0.000441948
0.0402785
-0.000480928
0.0402621
-0.000517798
0.0402361
-0.000553656
0.0402074
-0.000579055
0.0401727
-0.000598727
0.0401413
-0.000570397
0.0401197
-0.000630224
0.0401242
-0.000657035
0.0399824
-0.000647681
0.0398722
-0.000620269
0.039785
-0.000576256
0.0397016
-0.000517598
0.0396272
-0.000447154
0.0395879
-0.000371655
0.0396183
-0.000287207
0.0395013
-0.000200344
0.039457
-0.000116056
0.0394541
-3.70683e-05
0.0394681
3.54888e-05
0.0394945
9.87734e-05
0.0395296
0.000152691
0.039575
0.000192749
0.0396257
0.000212991
0.0396912
0.000213964
0.0397571
0.000210554
0.0398056
0.000221689
0.0398574
0.000272081
0.039882
0.000279496
0.0399047
0.000272795
0.0399371
0.000260729
0.0399754
0.00024986
0.0400038
0.000236768
0.0400209
0.000222035
0.0400405
0.000204032
0.0400591
0.000185067
0.0400748
0.00016539
0.0400882
0.000147199
0.0400974
0.00012463
0.0401086
0.000105816
0.0401142
8.28184e-05
0.0401222
6.37213e-05
0.0401248
4.05429e-05
0.0401302
2.13396e-05
0.0401303
0.0401322
-2.24413e-05
0.0402838
-4.5189e-05
0.0402856
-6.82343e-05
0.0402871
-9.17415e-05
0.0402893
-0.000113847
0.0402921
-0.00013875
0.0402954
-0.00016461
0.0402992
-0.000191595
0.0403052
-0.000219915
0.0403073
-0.000249724
0.0403131
-0.000279186
0.0403144
-0.00031247
0.0403187
-0.000347724
0.0403196
-0.000384972
0.0403182
-0.000422227
0.040314
-0.000455388
0.0403117
-0.000501566
0.0403083
-0.000548691
0.0402832
-0.000591682
0.0402503
-0.000633191
0.0402142
-0.000661292
0.0401694
-0.000681596
0.04014
-0.000717992
0.0401606
-0.000735612
0.0400001
-0.000729024
0.0398656
-0.000699782
0.0397558
-0.000648728
0.0396505
-0.000577931
0.0395564
-0.000492269
0.0395022
-0.000398573
0.0395246
-0.00029599
0.0393987
-0.000192049
0.0393531
-9.20009e-05
0.0393541
3.25638e-07
0.0393758
8.3284e-05
0.0394115
0.000152758
0.0394601
0.000211018
0.0395168
0.000242716
0.039594
0.000263964
0.0396699
0.00028982
0.0397312
0.000290111
0.0398053
0.000317578
0.0398299
0.000336087
0.0398635
0.000333332
0.0399075
0.000318317
0.0399521
0.000299974
0.0399937
0.000288721
0.0400151
0.000271556
0.0400381
0.000250979
0.0400611
0.000229342
0.0400807
0.000208967
0.0400952
0.000186072
0.0401111
0.000162869
0.0401206
0.000139458
0.040132
0.000115941
0.0401377
9.43819e-05
0.0401437
6.8796e-05
0.0401504
4.72322e-05
0.0401517
2.36736e-05
0.0401539
0.0401559
-2.21204e-05
0.0403059
-4.45746e-05
0.0403081
-6.73603e-05
0.0403099
-8.86329e-05
0.0403106
-0.000112609
0.0403161
-0.000137465
0.0403203
-0.000165425
0.0403271
-0.000190659
0.0403304
-0.000219451
0.040336
-0.000248014
0.0403417
-0.000282649
0.040349
-0.000315536
0.0403516
-0.000352937
0.040357
-0.000393073
0.0403584
-0.000436016
0.0403569
-0.000477801
0.0403535
-0.000528019
0.0403585
-0.000578315
0.0403335
-0.000629948
0.040302
-0.000681371
0.0402657
-0.000730512
0.0402186
-0.000764503
0.040174
-0.000792878
0.040189
-0.000827509
0.0400347
-0.000825349
0.0398634
-0.000794164
0.0397246
-0.000734682
0.039591
-0.000648795
0.0394705
-0.000541365
0.0393948
-0.000423653
0.0394069
-0.000299964
0.0392751
-0.000174324
0.0392275
-5.59143e-05
0.0392356
5.11357e-05
0.0392688
0.000143947
0.0393187
0.000223645
0.0393804
0.000271947
0.0394685
0.000304554
0.0395614
0.000343612
0.0396309
0.000376862
0.039698
0.000394916
0.0397873
0.000405539
0.0398193
0.000400973
0.039868
0.000388822
0.0399196
0.000370395
0.0399706
0.000352681
0.0400114
0.000332519
0.0400352
0.000310731
0.0400599
0.000285808
0.040086
0.000260139
0.0401064
0.000234024
0.0401213
0.000207671
0.0401374
0.000181236
0.040147
0.000156822
0.0401565
0.000128464
0.040166
0.000102217
0.04017
7.80806e-05