/*--------------------------------*- C++ -*----------------------------------*\
  =========                 |
  \\      /  F ield         | OpenFOAM: The Open Source CFD Toolbox
   \\    /   O peration     | Website:  https://openfoam.org
    \\  /    A nd           | Version:  12
     \\/     M anipulation  |
\*---------------------------------------------------------------------------*/
FoamFile
{
    format      ascii;
    class       volVectorField;
    location    "360";
    object      U;
}
// * * * * * * * * * * * * * * * * * * * * * * * * * * * * * * * * * * * * * //

dimensions      [0 1 -1 0 0 0 0];

internalField   nonuniform List<vector> 
16227
(
(2 -1.31373e-05 -9.29063e-23)
(2 -3.93549e-05 9.34973e-23)
(2 -6.54913e-05 -9.34984e-23)
(2 -9.15505e-05 -9.45086e-23)
(2 -0.00011748 9.45097e-23)
(2 -0.000143215 9.6165e-23)
(2 -0.000168706 1.08894e-24)
(2 -0.000193861 -1.95712e-22)
(2 -0.000218566 2.98259e-22)
(2 -0.000242679 -1.99776e-22)
(2 -0.00026604 0)
(2 -0.000288486 2.08074e-22)
(2 -0.000309863 0)
(2 -0.000329991 0)
(2 -0.000348602 0)
(2 -0.00036546 0)
(2 -0.000380311 0)
(2 -0.0003929 0)
(2 -0.00040298 0)
(2 -0.000410317 0)
(2 -0.0004147 -2.53632e-22)
(2 -0.000415958 -5.42334e-24)
(2 -0.000413962 2.59056e-22)
(2 -0.000408637 0)
(2 -0.000399971 -2.75061e-22)
(2 -0.00038802 2.75062e-22)
(2 -0.000372915 0)
(2 -0.00035484 1.43794e-22)
(2 -0.000334083 0)
(2 -0.000311 0)
(2 -0.000285972 0)
(2 -0.000259428 0)
(2 -0.000231803 0)
(2 -0.000203581 3.11765e-22)
(2 -0.000175228 2.472e-24)
(2 -0.0001472 -3.14246e-22)
(2 -0.000119914 0)
(2 -9.37553e-05 3.19592e-22)
(2 -6.90609e-05 1.13248e-24)
(2 -4.61139e-05 -3.20729e-22)
(2 -2.51422e-05 0)
(2 -6.31721e-06 0)
(2 1.02447e-05 0)
(2 2.44779e-05 0)
(2 3.6366e-05 0)
(2 4.59346e-05 0)
(2 5.32425e-05 0)
(2 5.83829e-05 0)
(2 6.14692e-05 0)
(2 6.2634e-05 0)
(2 6.20293e-05 0)
(2 5.98131e-05 0)
(2 5.61572e-05 0)
(2 5.12235e-05 0)
(2 4.51925e-05 -1.58397e-22)
(2 3.82295e-05 1.58404e-22)
(2 3.05083e-05 0)
(2 2.22057e-05 0)
(2 1.34909e-05 0)
(2 4.52541e-06 1.57564e-22)
(2.00006 -5.00869e-05 3.37687e-25)
(2.00006 -0.000149991 0)
(2.00006 -0.000249701 0)
(2.00006 -0.000349174 0)
(2.00006 -0.000448186 -1.5991e-22)
(2.00006 -0.000546568 0)
(2.00006 -0.000644084 0)
(2.00006 -0.000740448 -4.9753e-22)
(2.00006 -0.00083523 3.32589e-22)
(2.00006 -0.000927945 -6.85397e-22)
(2.00005 -0.00101797 2.76979e-21)
(2.00005 -0.0011047 -1.75314e-21)
(2.00005 -0.00118763 8.88504e-22)
(2.00005 -0.00126599 0)
(2.00004 -0.00133883 0)
(2.00004 -0.00140527 0)
(2.00003 -0.00146435 0)
(2.00003 -0.0015151 0)
(2.00002 -0.00155659 0)
(2.00001 -0.00158792 0)
(2.00001 -0.00160826 0)
(2 -0.00161695 0)
(1.99999 -0.0016135 0)
(1.99998 -0.00159756 0)
(1.99998 -0.00156906 0)
(1.99997 -0.00152817 -4.73745e-22)
(1.99996 -0.00147534 4.7376e-22)
(1.99995 -0.00141124 -2.43044e-22)
(1.99995 -0.0013369 0)
(1.99994 -0.00125358 0)
(1.99994 -0.00116269 0)
(1.99994 -0.00106578 0)
(1.99993 -0.000964493 0)
(1.99993 -0.00086059 0)
(1.99993 -0.000755795 0)
(1.99994 -0.000651777 -5.35256e-22)
(1.99994 -0.000550101 -2.98673e-24)
(1.99994 -0.000452174 -2.42269e-24)
(1.99994 -0.000359254 -1.88866e-24)
(1.99995 -0.000272399 5.42649e-22)
(1.99995 -0.000192458 5.44993e-22)
(1.99996 -0.000120076 -5.4501e-22)
(1.99996 -5.57013e-05 0)
(1.99997 4.18052e-07 0)
(1.99998 4.81948e-05 0)
(1.99998 8.77057e-05 0)
(1.99999 0.000119152 0)
(1.99999 0.000142846 0)
(2 0.000159198 0)
(2 0.000168692 0)
(2 0.000171849 5.39536e-22)
(2.00001 0.000169229 -1.07834e-21)
(2.00001 0.000161435 -1.0746e-21)
(2.00001 0.000149083 1.07464e-21)
(2.00002 0.000132785 -1.07114e-21)
(2.00002 0.00011316 1.60599e-21)
(2.00002 9.08181e-05 -5.35073e-22)
(2.00002 6.63678e-05 2.67102e-22)
(2.00002 4.04284e-05 -2.67106e-22)
(2.00002 1.35399e-05 -9.63261e-26)
(2.0002 -9.23781e-05 1.56521e-22)
(2.0002 -0.000276741 0)
(2.00019 -0.000460825 0)
(2.00019 -0.000644514 0)
(2.00019 -0.000827422 1.59876e-22)
(2.00019 -0.00100921 -3.23811e-22)
(2.00019 -0.00118951 -3.69811e-24)
(2.00019 -0.00136778 4.92251e-22)
(2.00018 -0.00154329 1.66569e-22)
(2.00018 -0.00171519 6.83499e-22)
(2.00017 -0.00188241 -6.78194e-22)
(2.00017 -0.00204373 -1.39668e-21)
(2.00016 -0.00219828 1.77742e-22)
(2.00015 -0.00234474 0)
(2.00014 -0.00248132 1.85573e-22)
(2.00012 -0.00260646 0)
(2.00011 -0.0027184 0)
(2.00009 -0.0028154 0)
(2.00007 -0.00289569 -8.19744e-22)
(2.00005 -0.0029577 8.19647e-22)
(2.00003 -0.00299982 -4.28254e-22)
(2 -0.00302084 4.28254e-22)
(1.99998 -0.00301981 0)
(1.99996 -0.00299607 -4.56098e-22)
(1.99993 -0.00294943 -9.03024e-24)
(1.99991 -0.00288016 4.65169e-22)
(1.99988 -0.00278902 0)
(1.99986 -0.00267724 0)
(1.99984 -0.00254658 0)
(1.99983 -0.00239928 0)
(1.99981 -0.00223784 2.57148e-22)
(1.9998 -0.00206511 -5.11972e-22)
(1.9998 -0.00188403 0)
(1.99979 -0.00169775 0)
(1.99979 -0.00150937 5.32499e-22)
(1.9998 -0.0013219 -5.3255e-22)
(1.9998 -0.00113814 0)
(1.99981 -0.0009606 0)
(1.99982 -0.000791565 0)
(1.99984 -0.000632917 0)
(1.99985 -0.000486192 0)
(1.99987 -0.000352549 0)
(1.99988 -0.000232788 -2.73374e-22)
(1.9999 -0.000127382 0)
(1.99992 -3.64782e-05 0)
(1.99993 4.00543e-05 0)
(1.99995 0.000102556 -2.7161e-22)
(1.99996 0.000151566 5.43948e-22)
(1.99998 0.00018779 0)
(1.99999 0.000212077 2.70645e-22)
(2 0.000225336 0)
(2.00001 0.000228551 5.38754e-22)
(2.00002 0.000222769 1.07436e-21)
(2.00003 0.000209028 2.66388e-22)
(2.00004 0.000188428 -1.07257e-21)
(2.00004 0.000162048 5.34726e-22)
(2.00005 0.000130938 -5.34953e-22)
(2.00005 9.61528e-05 0)
(2.00005 5.87739e-05 0)
(2.00005 1.97121e-05 -2.65956e-22)
(2.00042 -0.00013563 0)
(2.00042 -0.000406577 0)
(2.00042 -0.000677155 -1.56312e-22)
(2.00042 -0.000947208 0)
(2.00042 -0.00121614 -1.59545e-22)
(2.00041 -0.00148355 1.59524e-22)
(2.00041 -0.00174885 0)
(2.0004 -0.00201128 -4.96709e-22)
(2.0004 -0.00226982 4.93526e-22)
(2.00039 -0.00252329 0)
(2.00038 -0.0027702 -6.92123e-22)
(2.00036 -0.00300855 -2.09225e-21)
(2.00034 -0.00323725 -3.56284e-22)
(2.00032 -0.00345432 0)
(2.0003 -0.00365713 -1.85454e-22)
(2.00027 -0.00384333 0)
(2.00024 -0.00401039 0)
(2.0002 -0.00415572 1.60033e-21)
(2.00016 -0.00427678 -1.60067e-21)
(2.00012 -0.00437109 0)
(2.00007 -0.00443624 -4.27849e-22)
(2.00002 -0.00447049 -9.51032e-24)
(1.99997 -0.00447228 -9.49205e-24)
(1.99991 -0.00444058 4.46887e-22)
(1.99986 -0.00437508 0)
(1.99981 -0.00427617 0)
(1.99976 -0.00414492 0)
(1.99972 -0.00398313 2.45748e-22)
(1.99968 -0.00379337 2.4488e-24)
(1.99964 -0.0035789 2.53173e-22)
(1.99961 -0.00334345 1.36912e-24)
(1.99959 -0.00309124 0)
(1.99957 -0.00282663 0)
(1.99957 -0.00255425 0)
(1.99957 -0.00227867 -5.34035e-22)
(1.99957 -0.0020043 -3.50961e-24)
(1.99958 -0.00173527 -2.88751e-24)
(1.9996 -0.0014753 -2.29264e-24)
(1.99962 -0.00122767 1.08773e-21)
(1.99965 -0.000995116 -5.44788e-22)
(1.99968 -0.000779856 0)
(1.99971 -0.000583553 -2.73921e-22)
(1.99974 -0.000407345 2.73389e-22)
(1.99978 -0.000251881 0)
(1.99981 -0.000117328 0)
(1.99985 -3.50346e-06 0)
(1.99988 9.01294e-05 -2.72341e-22)
(1.99991 0.000164393 0)
(1.99994 0.000220318 0)
(1.99996 0.000259139 -5.41353e-22)
(1.99999 0.000282179 -1.07869e-21)
(2.00001 0.000290894 2.15442e-21)
(2.00003 0.000286754 -1.07638e-21)
(2.00005 0.000271237 -1.34046e-21)
(2.00006 0.000245973 1.0721e-21)
(2.00007 0.000212467 0)
(2.00008 0.000172237 0)
(2.00009 0.000126787 2.66723e-22)
(2.0001 7.76459e-05 0)
(2.0001 2.61164e-05 0)
(2.00074 -0.000177615 0)
(2.00074 -0.000532796 0)
(2.00074 -0.000887531 1.23842e-24)
(2.00073 -0.00124165 0)
(2.00073 -0.00159443 0)
(2.00072 -0.00194533 -3.18411e-22)
(2.00072 -0.00229362 -4.87287e-22)
(2.00071 -0.00263835 4.8376e-22)
(2.00069 -0.00297824 0)
(2.00068 -0.00331176 0)
(2.00066 -0.00363706 -6.87986e-22)
(2.00063 -0.00395131 4.17075e-21)
(2.0006 -0.00425332 -3.52813e-22)
(2.00057 -0.00454021 3.57291e-22)
(2.00053 -0.00480872 0)
(2.00048 -0.00505561 0)
(2.00042 -0.00527746 7.79635e-22)
(2.00036 -0.00547093 2.39151e-21)
(2.00029 -0.00563263 -1.19294e-21)
(2.00021 -0.00575858 0)
(2.00013 -0.00584598 0)
(2.00004 -0.00589253 0)
(1.99995 -0.00589584 0)
(1.99986 -0.0058545 -4.56666e-22)
(1.99977 -0.00576803 -9.49366e-24)
(1.99968 -0.00563689 -9.23111e-24)
(1.99959 -0.00546248 4.75546e-22)
(1.99951 -0.00524723 2.44923e-22)
(1.99944 -0.00499458 2.37045e-24)
(1.99938 -0.0047089 -2.50368e-22)
(1.99933 -0.00439527 7.71929e-22)
(1.99929 -0.00405947 -5.15412e-22)
(1.99926 -0.00370742 -5.27183e-22)
(1.99925 -0.00334534 5.27279e-22)
(1.99924 -0.00297941 5.36321e-22)
(1.99925 -0.00261552 -5.36418e-22)
(1.99927 -0.00225922 0)
(1.99931 -0.00191546 0)
(1.99934 -0.0015886 -5.46683e-22)
(1.99939 -0.0012822 5.46724e-22)
(1.99944 -0.000999173 5.48408e-22)
(1.99949 -0.000741617 -2.74534e-22)
(1.99955 -0.000510974 0)
(1.99961 -0.00030796 0)
(1.99967 -0.000132753 0)
(1.99972 1.49924e-05 0)
(1.99978 0.000136078 0)
(1.99983 0.000231655 0)
(1.99988 0.000303153 -2.71529e-22)
(1.99993 0.000352254 -1.35222e-21)
(1.99997 0.000380753 1.08083e-21)
(2.00001 0.000390569 1.07575e-21)
(2.00004 0.000383586 -1.61342e-21)
(2.00007 0.000361873 1.07151e-21)
(2.0001 0.000327524 -1.07153e-21)
(2.00012 0.000282478 0)
(2.00013 0.000228743 0)
(2.00015 0.000168281 -3.33046e-25)
(2.00015 0.000103038 0)
(2.00016 3.47371e-05 0)
(2.00114 -0.000218021 -1.52146e-22)
(2.00113 -0.000654401 0)
(2.00113 -0.0010903 2.56785e-25)
(2.00113 -0.00152559 1.54724e-22)
(2.00112 -0.00195942 0)
(2.00112 -0.00239121 1.50592e-24)
(2.00111 -0.00282007 -3.20835e-22)
(2.00109 -0.00324485 3.20725e-22)
(2.00107 -0.00366409 0)
(2.00105 -0.00407598 0)
(2.00102 -0.00447834 3.36708e-22)
(2.00098 -0.00486746 1.37198e-21)
(2.00094 -0.00524188 -7.04628e-22)
(2.00088 -0.00559801 3.57241e-22)
(2.00082 -0.00593196 0)
(2.00074 -0.00623949 -3.79143e-22)
(2.00065 -0.00651628 3.79241e-22)
(2.00056 -0.00675831 1.63118e-23)
(2.00045 -0.00696081 -1.7918e-21)
(2.00033 -0.00711842 -4.16576e-22)
(2.0002 -0.00722792 4.11396e-22)
(2.00007 -0.00728623 -1.01202e-23)
(1.99993 -0.00729002 4.37036e-22)
(1.99979 -0.00723751 0)
(1.99964 -0.00712786 0)
(1.9995 -0.00696156 0)
(1.99937 -0.0067404 0)
(1.99925 -0.00646748 -2.44837e-22)
(1.99914 -0.00614722 0)
(1.99904 -0.0057852 0)
(1.99896 -0.00538806 7.77615e-22)
(1.9989 -0.00496336 -5.18143e-22)
(1.99886 -0.00451867 0)
(1.99883 -0.00406209 0)
(1.99883 -0.00360155 0)
(1.99885 -0.00314454 0)
(1.99888 -0.00269819 5.45593e-22)
(1.99893 -0.00226873 2.02243e-24)
(1.99899 -0.00186158 -8.22912e-22)
(1.99906 -0.00148122 0)
(1.99914 -0.00113113 0)
(1.99922 -0.000813871 5.50514e-22)
(1.99931 -0.000531066 -8.26228e-22)
(1.9994 -0.000283478 0)
(1.99949 -7.11492e-05 0)
(1.99958 0.000106512 0)
(1.99966 0.000250671 0)
(1.99974 0.000362873 0)
(1.99982 0.000445034 8.13889e-22)
(1.99989 0.000499351 2.16175e-21)
(1.99995 0.000528164 -2.16212e-21)
(2.00001 0.000533829 1.07572e-21)
(2.00006 0.00051875 -5.38425e-22)
(2.0001 0.000485648 0)
(2.00014 0.000437022 2.67201e-22)
(2.00017 0.000375288 0)
(2.0002 0.000302939 0)
(2.00022 0.000222391 -2.66379e-22)
(2.00023 0.000135994 0)
(2.00024 4.58999e-05 2.64729e-22)
(2.00161 -0.000256923 1.80967e-24)
(2.00161 -0.000771601 0)
(2.00161 -0.00128582 0)
(2.0016 -0.00179953 -1.52464e-22)
(2.0016 -0.00231185 0)
(2.00159 -0.00282212 1.56813e-22)
(2.00157 -0.00332943 -1.58727e-22)
(2.00155 -0.00383237 3.17434e-22)
(2.00153 -0.00432939 0)
(2.0015 -0.00481838 -6.64312e-22)
(2.00145 -0.00529696 3.27664e-22)
(2.0014 -0.00576093 8.13032e-24)
(2.00134 -0.00620747 1.39292e-21)
(2.00126 -0.00663321 -7.16633e-22)
(2.00117 -0.00703329 -8.31555e-24)
(2.00106 -0.00740245 -2.00172e-22)
(2.00094 -0.00773545 3.84551e-21)
(2.0008 -0.00802748 -1.50678e-21)
(2.00065 -0.00827192 -2.59448e-21)
(2.00048 -0.00846233 3.6726e-21)
(2.0003 -0.00859486 4.15061e-22)
(2.0001 -0.00866524 -4.36839e-22)
(1.9999 -0.00866918 -1.05637e-23)
(1.9997 -0.00860428 4.47511e-22)
(1.99949 -0.00846932 0)
(1.99929 -0.00826477 0)
(1.9991 -0.00799279 0)
(1.99892 -0.00765718 0)
(1.99876 -0.00726347 2.51809e-22)
(1.99862 -0.00681867 0)
(1.9985 -0.00633122 -7.76215e-22)
(1.99842 -0.00581067 0)
(1.99836 -0.00526659 5.33845e-22)
(1.99833 -0.00470909 -5.33995e-22)
(1.99832 -0.00414812 5.43045e-22)
(1.99835 -0.00359303 3.27375e-24)
(1.9984 -0.00305261 -1.09571e-21)
(1.99847 -0.00253443 5.49206e-22)
(1.99855 -0.00204511 -2.77151e-22)
(1.99866 -0.00159002 5.52425e-22)
(1.99877 -0.00117317 2.7739e-22)
(1.99889 -0.00079748 0)
(1.99902 -0.000464667 2.75779e-22)
(1.99915 -0.000175442 0)
(1.99928 7.0394e-05 0)
(1.9994 0.000273796 2.74707e-22)
(1.99952 0.000436412 -2.73773e-22)
(1.99964 0.000560274 0)
(1.99974 0.000647912 3.25732e-21)
(1.99984 0.000702152 2.15475e-21)
(1.99993 0.000725852 -4.32474e-21)
(2.00002 0.000721811 -1.07497e-21)
(2.00009 0.000693218 2.41511e-21)
(2.00015 0.000643333 -1.07196e-21)
(2.00021 0.00057505 -2.67192e-22)
(2.00025 0.000491331 0)
(2.00029 0.000395141 5.31638e-22)
(2.00031 0.000289317 -2.65885e-22)
(2.00033 0.000176629 0)
(2.00034 5.96347e-05 -5.61029e-25)
(2.00217 -0.000294296 1.50282e-22)
(2.00216 -0.000884358 0)
(2.00216 -0.00147409 0)
(2.00216 -0.00206349 1.5071e-22)
(2.00215 -0.00265176 -1.31744e-24)
(2.00213 -0.00323822 1.53263e-22)
(2.00212 -0.00382198 -1.54604e-22)
(2.00209 -0.00440147 -4.76536e-22)
(2.00206 -0.00497502 3.17731e-22)
(2.00202 -0.00554026 -6.56665e-22)
(2.00196 -0.00609462 -1.77033e-22)
(2.00189 -0.00663371 1.00454e-21)
(2.00181 -0.00715321 -2.77105e-21)
(2.00171 -0.00764956 -1.42557e-21)
(2.00159 -0.00811734 1.4257e-21)
(2.00144 -0.00855013 -1.8541e-22)
(2.00128 -0.0089419 4.55729e-21)
(2.00109 -0.00928614 -7.47421e-22)
(2.00089 -0.00957488 -7.99613e-22)
(2.00066 -0.00980042 -2.46807e-21)
(2.00041 -0.00995779 4.1865e-22)
(2.00014 -0.0100414 0)
(1.99987 -0.0100458 0)
(1.99959 -0.00996767 -4.58944e-22)
(1.9993 -0.00980536 -1.08441e-23)
(1.99903 -0.00955916 4.70019e-22)
(1.99876 -0.00923154 0)
(1.99852 -0.00882719 5.00548e-22)
(1.9983 -0.00835289 -7.52331e-22)
(1.99811 -0.00781723 0)
(1.99795 -0.00723081 2.61028e-22)
(1.99783 -0.00660558 -1.05827e-21)
(1.99775 -0.00595337 -5.74543e-24)
(1.99772 -0.00528669 1.082e-21)
(1.99772 -0.00461783 3.98916e-24)
(1.99775 -0.00395815 -5.47767e-22)
(1.99782 -0.0033183 0)
(1.99792 -0.00270741 5.55089e-22)
(1.99804 -0.00213323 8.80414e-25)
(1.99819 -0.00160207 -5.56182e-22)
(1.99834 -0.00111841 -5.56629e-22)
(1.99851 -0.00068548 0)
(1.99869 -0.000304906 0)
(1.99886 2.27802e-05 -2.77399e-22)
(1.99904 0.000298158 0)
(1.99921 0.000522694 -5.50059e-22)
(1.99937 0.000698644 2.73754e-22)
(1.99953 0.000828715 -5.46185e-22)
(1.99967 0.000916132 -3.26184e-21)
(1.99981 0.000964436 -2.16144e-21)
(1.99993 0.000977045 1.08208e-21)
(2.00004 0.000957332 -3.65111e-24)
(2.00014 0.000909405 -1.60969e-21)
(2.00022 0.000836892 5.34606e-22)
(2.00029 0.000743203 0)
(2.00035 0.000631874 0)
(2.0004 0.000506293 -6.10693e-25)
(2.00044 0.000369719 0)
(2.00046 0.000225336 0)
(2.00047 7.60684e-05 -2.64157e-22)
(2.00279 -0.000330109 0)
(2.00279 -0.000992528 0)
(2.00279 -0.00165478 1.47031e-22)
(2.00278 -0.00231711 -1.50263e-22)
(2.00277 -0.00297875 0)
(2.00276 -0.0036391 -3.02996e-22)
(2.00274 -0.00429734 1.52607e-22)
(2.00271 -0.00495191 1.54413e-22)
(2.00267 -0.0056009 0)
(2.00261 -0.00624183 0)
(2.00255 -0.00687193 -4.95848e-22)
(2.00246 -0.00748677 3.24725e-22)
(2.00235 -0.00808101 1.37819e-21)
(2.00222 -0.00864962 4.15772e-21)
(2.00207 -0.00918745 0)
(2.00189 -0.00968672 -7.28618e-22)
(2.00168 -0.0101408 -3.01977e-21)
(2.00144 -0.0105409 -7.68858e-22)
(2.00116 -0.0108776 -1.5986e-21)
(2.00086 -0.0111418 3.90251e-22)
(2.00054 -0.011327 -8.49858e-22)
(2.00019 -0.0114261 -1.16862e-23)
(1.99983 -0.0114319 -1.17527e-23)
(1.99946 -0.0113403 4.48392e-22)
(1.99908 -0.0111486 0)
(1.99872 -0.010857 0)
(1.99836 -0.0104681 0)
(1.99804 -0.00998774 2.5075e-22)
(1.99775 -0.00942401 -2.55844e-22)
(1.99749 -0.00878749 0)
(1.99729 -0.0080913 5.2519e-22)
(1.99714 -0.00735026 -5.30936e-22)
(1.99704 -0.0065789 0)
(1.99699 -0.00579263 0)
(1.997 -0.00500633 8.30288e-22)
(1.99705 -0.00423384 -5.53214e-22)
(1.99715 -0.00348781 -5.58428e-22)
(1.99728 -0.00277913 1.11847e-21)
(1.99745 -0.00211668 -5.59988e-22)
(1.99764 -0.00150766 0)
(1.99786 -0.000956967 8.39092e-22)
(1.99808 -0.000467988 -5.59851e-22)
(1.99831 -4.21963e-05 -2.79689e-22)
(1.99855 0.000320303 5.55987e-22)
(1.99878 0.000620664 0)
(1.999 0.00086105 2.75354e-22)
(1.99922 0.00104448 -5.49477e-22)
(1.99942 0.00117455 5.46084e-22)
(1.99961 0.0012554 -2.16602e-21)
(1.99978 0.00129125 1.09047e-21)
(1.99994 0.00128598 5.3783e-22)
(2.00008 0.00124413 2.68109e-22)
(2.00021 0.00117044 -2.68107e-22)
(2.00032 0.00106889 -2.66957e-22)
(2.00041 0.000943599 5.31223e-22)
(2.00049 0.000798578 -6.05957e-25)
(2.00055 0.000637653 -5.30132e-22)
(2.00059 0.00046448 2.63938e-22)
(2.00062 0.000282629 0)
(2.00064 9.53707e-05 0)
(2.00349 -0.000364252 0)
(2.00349 -0.00109577 0)
(2.00349 -0.00182744 -2.91255e-22)
(2.00348 -0.00255972 0)
(2.00347 -0.00329206 0)
(2.00345 -0.00402394 2.69961e-24)
(2.00343 -0.00475465 0)
(2.0034 -0.00548276 -1.54053e-22)
(2.00335 -0.00620631 -1.56364e-22)
(2.00329 -0.00692256 1.56527e-22)
(2.00321 -0.00762862 -6.50392e-22)
(2.0031 -0.00832012 6.5022e-22)
(2.00297 -0.00899103 0)
(2.00281 -0.00963442 -4.13952e-21)
(2.00262 -0.0102462 -6.63946e-22)
(2.0024 -0.0108161 7.96527e-22)
(2.00213 -0.0113372 -4.421e-21)
(2.00183 -0.0117979 1.54494e-21)
(2.00149 -0.012188 -7.76266e-22)
(2.00111 -0.0124958 0)
(2.00069 -0.0127133 -8.33273e-22)
(2.00025 -0.0128312 0)
(1.99978 -0.0128407 -4.48796e-22)
(1.9993 -0.0127358 4.48929e-22)
(1.99882 -0.0125129 -4.73886e-22)
(1.99835 -0.0121717 2.33207e-22)
(1.99789 -0.0117151 0)
(1.99747 -0.0111499 -2.50711e-22)
(1.9971 -0.010486 7.72734e-22)
(1.99677 -0.00973616 2.63278e-22)
(1.99651 -0.00891675 -5.42922e-22)
(1.99632 -0.00804605 -2.79283e-22)
(1.99619 -0.00714188 5.44371e-22)
(1.99614 -0.00622303 0)
(1.99616 -0.00530756 2.82136e-22)
(1.99623 -0.00441214 2.74317e-24)
(1.99637 -0.00355156 1.76734e-24)
(1.99655 -0.00273876 -5.64566e-22)
(1.99677 -0.00198382 5.65642e-22)
(1.99703 -0.00129477 -8.49865e-22)
(1.9973 -0.000676788 2.83502e-22)
(1.9976 -0.000133206 0)
(1.9979 0.000334801 2.79695e-22)
(1.9982 0.000727798 -2.78575e-22)
(1.9985 0.00104778 0)
(1.99879 0.00129786 0)
(1.99906 0.00148211 5.49386e-22)
(1.99932 0.00160503 -6.88157e-24)
(1.99956 0.00167201 -1.10602e-23)
(1.99978 0.00168798 2.16058e-21)
(1.99998 0.00165742 5.39024e-22)
(2.00016 0.00158627 2.67982e-22)
(2.00031 0.00147964 2.66588e-22)
(2.00045 0.00134211 -9.37348e-25)
(2.00056 0.00117847 -2.66397e-22)
(2.00066 0.000993208 0)
(2.00074 0.000790539 0)
(2.00079 0.000574519 -5.26914e-22)
(2.00083 0.000349064 0)
(2.00085 0.000117734 0)
(2.00425 -0.000396565 0)
(2.00425 -0.00119367 0)
(2.00425 -0.0019913 9.88018e-25)
(2.00425 -0.00279034 1.43181e-22)
(2.00424 -0.00359039 0)
(2.00422 -0.00439122 1.47579e-22)
(2.00419 -0.00519229 1.48936e-22)
(2.00416 -0.00599237 2.25912e-24)
(2.00411 -0.00678952 2.62324e-24)
(2.00404 -0.00758104 -1.56549e-22)
(2.00394 -0.00836363 1.565e-22)
(2.00382 -0.00913306 1.59922e-22)
(2.00367 -0.00988333 -3.27442e-22)
(2.00348 -0.0106052 -2.68596e-21)
(2.00325 -0.011295 -7.10037e-22)
(2.00298 -0.0119414 2.85185e-21)
(2.00266 -0.0125352 2.22685e-21)
(2.00229 -0.0130631 -1.51639e-21)
(2.00186 -0.0135134 1.56295e-21)
(2.00139 -0.0138715 2.41714e-21)
(2.00088 -0.0141278 4.10477e-22)
(2.00032 -0.0142697 -6.17235e-24)
(1.99974 -0.0142862 -4.49335e-22)
(1.99913 -0.0141693 9.12432e-22)
(1.99852 -0.0139138 -4.63132e-22)
(1.99792 -0.0135185 2.40803e-22)
(1.99734 -0.0129867 0)
(1.99681 -0.012326 2.5564e-22)
(1.99633 -0.0115487 2.68599e-22)
(1.99593 -0.0106703 -2.58418e-22)
(1.9956 -0.00971112 2.68721e-22)
(1.99536 -0.00869358 2.7229e-22)
(1.99521 -0.0076396 2.78194e-22)
(1.99515 -0.00657224 -5.58279e-22)
(1.99518 -0.00551309 0)
(1.99529 -0.00448227 -5.69696e-22)
(1.99547 -0.00349717 -1.3748e-24)
(1.99571 -0.0025728 5.71484e-22)
(1.996 -0.00172034 -5.71543e-22)
(1.99634 -0.000948746 -1.58502e-24)
(1.99669 -0.000263335 6.42403e-25)
(1.99707 0.000332884 -8.50445e-22)
(1.99745 0.000839327 5.65579e-22)
(1.99783 0.00125756 -2.81332e-22)
(1.99821 0.00159075 -2.79501e-22)
(1.99857 0.00184327 -1.10544e-21)
(1.99891 0.00202054 3.30224e-21)
(1.99923 0.00212818 7.32866e-24)
(1.99953 0.00217292 4.36524e-21)
(1.9998 0.00216043 1.62144e-21)
(2.00005 0.00209645 -2.71228e-22)
(2.00026 0.00198796 -5.36287e-22)
(2.00046 0.00184049 -2.65883e-22)
(2.00062 0.00165939 2.65891e-22)
(2.00076 0.00145012 -2.64758e-22)
(2.00088 0.00121753 -2.63239e-22)
(2.00097 0.000966284 2.63266e-22)
(2.00104 0.000700756 6.62241e-25)
(2.00108 0.000425174 2.62327e-22)
(2.00111 0.000143336 0)
(2.00508 -0.000426844 0)
(2.00508 -0.00128561 0)
(2.00508 -0.00214544 0)
(2.00508 -0.00300761 -1.40981e-22)
(2.00507 -0.00387207 1.40926e-22)
(2.00506 -0.004739 -1.438e-22)
(2.00503 -0.00560803 1.43744e-22)
(2.00499 -0.00647827 0)
(2.00494 -0.00734798 0)
(2.00486 -0.00821458 1.53328e-22)
(2.00476 -0.00907468 -3.09866e-22)
(2.00462 -0.00992364 -3.27442e-24)
(2.00445 -0.0107561 6.63366e-22)
(2.00423 -0.0115615 2.02761e-21)
(2.00396 -0.0123339 1.38716e-21)
(2.00364 -0.0130636 -1.38918e-21)
(2.00326 -0.0137376 -1.4583e-21)
(2.00281 -0.0143415 9.23608e-22)
(2.0023 -0.0148614 -7.69889e-22)
(2.00173 -0.0152792 -2.34829e-23)
(2.00109 -0.0155827 -1.68265e-21)
(2.00041 -0.0157555 3.40211e-21)
(1.99969 -0.0157844 -4.35371e-22)
(1.99893 -0.0156581 0)
(1.99817 -0.0153692 0)
(1.99742 -0.0149152 0)
(1.9967 -0.0142993 0)
(1.99603 -0.0135306 -2.55625e-22)
(1.99544 -0.0126238 2.73137e-22)
(1.99493 -0.011598 4.91118e-24)
(1.99453 -0.0104783 0)
(1.99424 -0.00929265 2.7943e-22)
(1.99407 -0.00806799 -2.80773e-22)
(1.99401 -0.00683245 2.87532e-22)
(1.99406 -0.00561215 5.75781e-22)
(1.99421 -0.00443093 -8.67141e-22)
(1.99445 -0.0033093 -5.79261e-22)
(1.99477 -0.00226447 2.87577e-22)
(1.99515 -0.00130891 0)
(1.99557 -0.000452107 2.87176e-22)
(1.99602 0.000300527 -2.75762e-24)
(1.9965 0.000946564 -2.35308e-24)
(1.99698 0.0014866 -2.84997e-22)
(1.99745 0.00192356 -5.63757e-22)
(1.99791 0.00226215 8.41389e-22)
(1.99836 0.0025084 -2.21582e-21)
(1.99878 0.00266953 2.21481e-21)
(1.99917 0.00275249 -4.38061e-21)
(1.99953 0.00276532 4.89432e-21)
(1.99986 0.0027148 -1.62378e-21)
(2.00015 0.00260826 0)
(2.00041 0.00245343 2.66346e-22)
(2.00064 0.00225642 -2.66349e-22)
(2.00084 0.00202356 0)
(2.00101 0.00176076 0)
(2.00114 0.00147328 0)
(2.00125 0.00116619 0)
(2.00133 0.000844081 0)
(2.00139 0.000511484 0)
(2.00142 0.000172349 0)
(2.00597 -0.00045484 0)
(2.00597 -0.00137087 0)
(2.00597 -0.00228859 0)
(2.00597 -0.00320987 0)
(2.00597 -0.00413496 0)
(2.00596 -0.00506468 1.40243e-22)
(2.00593 -0.0059989 -2.82276e-22)
(2.0059 -0.00693722 1.42047e-22)
(2.00584 -0.00787821 -1.46834e-22)
(2.00576 -0.00881957 -2.96334e-24)
(2.00565 -0.00975796 1.49693e-22)
(2.0055 -0.0106886 0)
(2.00531 -0.0116063 -3.22655e-22)
(2.00507 -0.0125007 -1.00206e-21)
(2.00476 -0.0133626 6.7033e-21)
(2.00438 -0.0141836 -2.72729e-21)
(2.00394 -0.0149468 1.42845e-21)
(2.00341 -0.0156375 -2.60546e-24)
(2.00281 -0.0162386 9.59385e-22)
(2.00212 -0.0167286 -1.60669e-21)
(2.00136 -0.0170905 -3.27433e-21)
(2.00053 -0.0173045 -2.66185e-24)
(1.99964 -0.0173538 0)
(1.99872 -0.0172226 -4.66451e-22)
(1.99778 -0.0169005 -1.57303e-23)
(1.99685 -0.0163831 4.82827e-22)
(1.99596 -0.0156732 0)
(1.99513 -0.0147811 0)
(1.9944 -0.0137251 -2.60245e-22)
(1.99378 -0.0125285 -5.40687e-22)
(1.99329 -0.0112228 5.61831e-22)
(1.99295 -0.00984268 -2.81503e-22)
(1.99275 -0.0084216 0)
(1.9927 -0.00699382 -8.70191e-22)
(1.99278 -0.00559095 2.87575e-22)
(1.99299 -0.00424147 5.82746e-22)
(1.9933 -0.00296926 -5.88102e-22)
(1.99371 -0.00179368 2.92121e-22)
(1.99419 -0.000728667 2.90083e-22)
(1.99473 0.000215744 -8.79021e-22)
(1.9953 0.0010346 -3.04601e-24)
(1.99588 0.00172652 -2.56926e-24)
(1.99648 0.00229378 2.84919e-22)
(1.99706 0.00274125 -1.65894e-24)
(1.99763 0.00307578 0)
(1.99816 0.00330542 1.25698e-23)
(1.99867 0.00343955 2.21843e-21)
(1.99914 0.00348661 -4.38552e-21)
(1.99957 0.00345638 2.69082e-22)
(1.99996 0.00335727 -2.70878e-22)
(2.00031 0.00319788 0)
(2.00062 0.0029867 2.65462e-22)
(2.00089 0.00273077 -2.65469e-22)
(2.00112 0.00243725 0)
(2.00131 0.00211244 0)
(2.00147 0.00176199 0)
(2.0016 0.00139133 2.60126e-22)
(2.00169 0.00100524 -2.60158e-22)
(2.00175 0.000608433 0)
(2.00179 0.000204916 0)
(2.00691 -0.000480272 0)
(2.00692 -0.00144851 0)
(2.00692 -0.00241927 0)
(2.00693 -0.00339502 0)
(2.00693 -0.00437647 0)
(2.00692 -0.00536513 -1.36355e-22)
(2.0069 -0.0063613 2.74469e-22)
(2.00687 -0.00736516 2.22788e-24)
(2.00682 -0.00837583 2.58289e-24)
(2.00674 -0.00939131 1.48736e-22)
(2.00663 -0.0104088 -4.40515e-22)
(2.00647 -0.0114234 -3.77868e-24)
(2.00626 -0.01243 1.52739e-22)
(2.00599 -0.0134187 -3.24472e-22)
(2.00565 -0.0143786 -1.96885e-21)
(2.00522 -0.0152999 -2.02305e-21)
(2.00471 -0.0161639 -3.82932e-23)
(2.0041 -0.0169547 1.50285e-22)
(2.0034 -0.0176516 5.51065e-22)
(2.00259 -0.0182294 -2.37697e-21)
(2.00168 -0.0186651 -2.42062e-21)
(2.00068 -0.0189348 -8.50556e-22)
(1.99961 -0.0190161 0)
(1.99848 -0.0188876 -4.68402e-22)
(1.99733 -0.0185344 -1.7334e-23)
(1.99619 -0.0179491 4.86507e-22)
(1.9951 -0.0171336 2.5789e-22)
(1.99408 -0.0160999 0)
(1.99319 -0.0148702 5.48489e-22)
(1.99243 -0.0134737 -8.42715e-22)
(1.99184 -0.0119501 2.81473e-22)
(1.99144 -0.0103428 -5.82496e-22)
(1.99122 -0.00869341 8.75753e-22)
(1.99118 -0.00704405 4.54246e-24)
(1.99131 -0.00543287 -2.99414e-22)
(1.99159 -0.00389373 2.96714e-22)
(1.992 -0.0024543 0)
(1.99253 -0.00113636 0)
(1.99314 4.4766e-05 -2.98041e-22)
(1.99381 0.00107872 5.89187e-22)
(1.99451 0.00196156 2.91766e-22)
(1.99524 0.0026937 -2.77501e-24)
(1.99596 0.00327985 -5.78336e-22)
(1.99667 0.00372746 -8.50913e-22)
(1.99735 0.00404632 3.39785e-21)
(1.998 0.00424699 -2.23238e-21)
(1.9986 0.00434117 1.10151e-21)
(1.99915 0.0043392 3.2828e-21)
(1.99966 0.00425337 -3.80577e-21)
(2.00012 0.00409373 -5.40918e-22)
(2.00052 0.00386986 0)
(2.00088 0.00359142 -2.64388e-22)
(2.00119 0.00326638 2.64413e-22)
(2.00146 0.0029026 0)
(2.00168 0.00250676 2.60212e-22)
(2.00187 0.00208486 -2.60238e-22)
(2.00201 0.0016426 0)
(2.00212 0.00118481 0)
(2.00219 0.000716322 0)
(2.00223 0.000241143 0)
(2.0079 -0.000502828 0)
(2.00791 -0.00151762 0)
(2.00792 -0.00253594 0)
(2.00793 -0.00356084 0)
(2.00794 -0.00459371 0)
(2.00794 -0.00563684 0)
(2.00794 -0.00669101 -1.33922e-22)
(2.00791 -0.00775729 -2.18454e-24)
(2.00787 -0.0088354 -1.41079e-22)
(2.0078 -0.00992407 1.35539e-22)
(2.00769 -0.011021 -1.48039e-22)
(2.00753 -0.0121217 2.89262e-22)
(2.00731 -0.0132212 -3.05278e-22)
(2.00702 -0.0143102 -9.56196e-24)
(2.00664 -0.0153768 2.86967e-21)
(2.00617 -0.0164093 -6.73772e-22)
(2.0056 -0.0173887 -1.39698e-21)
(2.0049 -0.018296 -2.11792e-22)
(2.00409 -0.019107 -3.05567e-23)
(2.00314 -0.0197925 2.29519e-21)
(2.00207 -0.0203224 6.40156e-23)
(2.00088 -0.0206677 -4.3139e-22)
(1.9996 -0.0207978 6.52272e-22)
(1.99824 -0.0206837 2.3066e-22)
(1.99684 -0.0203042 0)
(1.99545 -0.0196471 2.51529e-22)
(1.99411 -0.018713 -2.57862e-22)
(1.99287 -0.0175153 5.45421e-22)
(1.99177 -0.0160816 -8.13927e-22)
(1.99086 -0.0144488 8.5612e-22)
(1.99016 -0.0126671 -2.87777e-22)
(1.98968 -0.0107918 5.96463e-22)
(1.98945 -0.00887461 -3.00034e-22)
(1.98943 -0.00696772 9.15857e-22)
(1.98962 -0.00511729 2.17619e-24)
(1.99 -0.00336316 -9.21131e-22)
(1.99054 -0.00173708 -6.10388e-22)
(1.99121 -0.000263782 6.09979e-22)
(1.99198 0.00104001 0)
(1.99281 0.00216445 2.97696e-22)
(1.99368 0.00310726 -2.98644e-22)
(1.99457 0.0038716 -2.98051e-22)
(1.99544 0.00446554 -4.67203e-24)
(1.9963 0.00490007 0)
(1.99711 0.005189 2.28094e-21)
(1.99787 0.00534586 -4.48743e-21)
(1.99858 0.00538469 -1.66555e-21)
(1.99923 0.00531866 -5.50823e-22)
(1.99982 0.00516311 2.69827e-22)
(2.00034 0.00492927 -1.87717e-21)
(2.00081 0.00462804 7.99877e-22)
(2.00122 0.00427053 -2.65117e-22)
(2.00157 0.0038654 0)
(2.00188 0.00342116 0)
(2.00213 0.0029448 0)
(2.00234 0.0024426 -2.57496e-22)
(2.0025 0.00192041 8.3888e-25)
(2.00262 0.00138307 2.56774e-22)
(2.0027 0.000835318 0)
(2.00275 0.000281078 0)
(2.00893 -0.000522108 -1.22959e-22)
(2.00895 -0.00157708 1.23308e-22)
(2.00897 -0.00263675 0)
(2.00898 -0.00370472 -1.25092e-22)
(2.009 -0.00478329 1.2503e-22)
(2.00902 -0.00587558 0)
(2.00902 -0.00698316 1.29329e-22)
(2.00902 -0.00810799 2.11782e-24)
(2.00899 -0.00925067 -2.65117e-22)
(2.00893 -0.0104109 -1.39489e-22)
(2.00883 -0.0115872 1.3324e-22)
(2.00867 -0.0127758 1.39786e-22)
(2.00845 -0.0139723 0)
(2.00815 -0.015168 0)
(2.00775 -0.0163511 -3.3333e-22)
(2.00724 -0.0175073 -9.71556e-22)
(2.0066 -0.0186189 1.33281e-21)
(2.00583 -0.0196624 -1.06061e-21)
(2.0049 -0.0206107 -3.24917e-23)
(2.00381 -0.0214293 1.4991e-21)
(2.00256 -0.0220801 5.63714e-21)
(2.00116 -0.0225279 -8.58244e-22)
(1.99963 -0.0227302 6.27668e-22)
(1.99799 -0.0226486 2.20454e-22)
(1.9963 -0.0222519 0)
(1.9946 -0.0215209 -2.51451e-22)
(1.99297 -0.0204532 0)
(1.99145 -0.0190642 2.78363e-22)
(1.99012 -0.0173884 8.46165e-24)
(1.98902 -0.0154731 -1.16458e-21)
(1.98818 -0.0133826 1.81402e-21)
(1.98764 -0.0111877 9.32214e-24)
(1.98739 -0.00895386 -6.13551e-22)
(1.98741 -0.00674547 8.48782e-24)
(1.9877 -0.00461836 -3.09041e-22)
(1.9882 -0.00261921 9.36981e-22)
(1.9889 -0.000784429 0)
(1.98975 0.000858192 0)
(1.99071 0.00229088 -6.1198e-22)
(1.99174 0.00350506 6.47695e-24)
(1.99281 0.00450109 1.20521e-21)
(1.99388 0.00528639 -6.23162e-24)
(1.99494 0.00587364 -4.79154e-24)
(1.99595 0.00627851 2.31286e-21)
(1.99691 0.00651986 -1.36461e-20)
(1.99781 0.00661438 5.59901e-21)
(1.99863 0.00657942 1.10002e-21)
(1.99938 0.00643263 0)
(2.00005 0.00619132 0)
(2.00065 0.00586787 1.07186e-21)
(2.00118 0.00547535 2.63771e-22)
(2.00164 0.00502596 -2.6377e-22)
(2.00204 0.00452905 0)
(2.00238 0.00399361 -2.57968e-22)
(2.00266 0.00342689 2.58003e-22)
(2.00289 0.00283538 0)
(2.00307 0.00222482 0)
(2.0032 0.00159993 2.54062e-22)
(2.00329 0.000965344 -2.5414e-22)
(2.00335 0.000324688 0)
(2.01 -0.000537786 0)
(2.01003 -0.00162576 0)
(2.01005 -0.00271967 1.19612e-22)
(2.01008 -0.00382389 -1.19551e-22)
(2.01011 -0.00494162 0)
(2.01014 -0.00607686 0)
(2.01017 -0.00723231 -1.24389e-22)
(2.01018 -0.00841087 -2.0232e-24)
(2.01017 -0.00961432 2.54948e-22)
(2.01013 -0.0108436 -1.286e-22)