/*--------------------------------*- C++ -*----------------------------------*\
  =========                 |
  \\      /  F ield         | OpenFOAM: The Open Source CFD Toolbox
   \\    /   O peration     | Website:  https://openfoam.org
    \\  /    A nd           | Version:  12
     \\/     M anipulation  |
\*---------------------------------------------------------------------------*/
FoamFile
{
    format      ascii;
    class       volScalarField;
    location    "180";
    object      k;
}
// * * * * * * * * * * * * * * * * * * * * * * * * * * * * * * * * * * * * * //

dimensions      [0 2 -2 0 0 0 0];

internalField   nonuniform List<scalar> 
16227
(
0.00914646
0.00914648
0.00914647
0.00914651
0.0091465
0.00914654
0.00914653
0.00914651
0.00914651
0.00914653
0.00914657
0.00914659
0.00914665
0.00914665
0.00914665
0.00914665
0.00914665
0.00914665
0.00914665
0.00914665
0.00914665
0.00914665
0.00914665
0.00914665
0.00914665
0.00914665
0.00914665
0.00914666
0.00914667
0.00914664
0.00914665
0.00914664
0.00914665
0.00914665
0.00914665
0.00914665
0.00914665
0.00914665
0.00914665
0.00914665
0.00914665
0.00914665
0.00914665
0.00914665
0.00914665
0.00914665
0.00914665
0.00914663
0.00914662
0.00914662
0.00914662
0.00914661
0.00914654
0.00914654
0.00914649
0.00914649
0.00914651
0.00914649
0.00914647
0.00914646
0.00848122
0.00848124
0.00848123
0.00848126
0.00848127
0.0084813
0.00848129
0.00848127
0.00848128
0.00848129
0.00848134
0.00848136
0.00848151
0.00848157
0.00848158
0.00848158
0.00848158
0.00848158
0.00848158
0.00848158
0.00848159
0.0084816
0.0084816
0.0084816
0.0084816
0.0084816
0.0084816
0.0084816
0.00848158
0.00848153
0.00848158
0.0084816
0.00848161
0.00848161
0.0084816
0.00848159
0.00848158
0.00848158
0.00848158
0.00848158
0.00848158
0.00848158
0.00848159
0.00848157
0.00848157
0.00848156
0.00848156
0.00848156
0.00848156
0.00848155
0.00848152
0.00848147
0.00848135
0.00848133
0.0084813
0.00848128
0.00848131
0.00848123
0.00848125
0.00848122
0.00790074
0.00790076
0.00790077
0.00790078
0.00790077
0.00790086
0.00790082
0.0079008
0.00790081
0.00790082
0.00790087
0.00790088
0.00790114
0.0079012
0.00790121
0.00790122
0.00790121
0.00790121
0.00790123
0.00790118
0.00790121
0.00790122
0.00790122
0.00790122
0.00790122
0.00790122
0.00790121
0.00790122
0.00790121
0.00790114
0.0079012
0.00790122
0.00790122
0.00790122
0.00790123
0.00790123
0.00790123
0.00790123
0.00790122
0.00790122
0.00790122
0.00790123
0.00790122
0.00790121
0.00790121
0.00790121
0.0079012
0.00790121
0.0079012
0.00790117
0.00790114
0.00790094
0.00790086
0.00790085
0.00790083
0.00790083
0.00790086
0.00790076
0.00790078
0.00790075
0.00739023
0.00739025
0.00739025
0.00739026
0.00739027
0.00739034
0.00739034
0.0073903
0.00739031
0.0073903
0.00739035
0.0073904
0.00739067
0.00739074
0.00739075
0.00739077
0.00739077
0.00739079
0.00739072
0.00739059
0.0073907
0.00739074
0.00739073
0.00739074
0.00739074
0.00739074
0.00739073
0.00739073
0.00739071
0.00739062
0.0073907
0.00739072
0.00739072
0.00739073
0.00739073
0.00739074
0.00739075
0.00739075
0.00739076
0.00739076
0.00739077
0.00739077
0.00739076
0.00739077
0.00739077
0.00739076
0.00739077
0.00739076
0.00739077
0.00739074
0.00739062
0.00739043
0.00739033
0.00739035
0.00739035
0.00739037
0.00739034
0.00739027
0.00739027
0.00739025
0.00693809
0.00693811
0.00693811
0.00693813
0.00693813
0.00693819
0.00693822
0.00693815
0.00693816
0.00693816
0.0069382
0.00693825
0.0069385
0.00693863
0.00693864
0.00693864
0.00693864
0.00693861
0.0069384
0.00693832
0.00693851
0.00693858
0.00693857
0.00693855
0.00693854
0.00693853
0.00693852
0.00693852
0.00693849
0.0069384
0.00693849
0.00693852
0.00693853
0.00693853
0.00693853
0.00693855
0.00693856
0.00693858
0.00693859
0.0069386
0.00693862
0.00693863
0.00693863
0.00693864
0.00693864
0.00693866
0.00693866
0.00693866
0.00693866
0.00693858
0.00693834
0.00693823
0.00693816
0.00693819
0.00693821
0.00693826
0.00693819
0.00693812
0.00693812
0.0069381
0.00653512
0.00653514
0.00653513
0.00653515
0.00653515
0.00653519
0.00653523
0.00653518
0.00653516
0.00653515
0.00653516
0.00653519
0.0065353
0.00653559
0.00653564
0.00653565
0.00653564
0.00653553
0.00653529
0.00653524
0.00653545
0.0065355
0.00653548
0.00653546
0.00653544
0.00653543
0.00653541
0.00653539
0.00653536
0.00653526
0.00653535
0.00653538
0.00653539
0.00653541
0.00653543
0.00653545
0.00653547
0.00653549
0.00653551
0.00653554
0.00653556
0.00653558
0.0065356
0.00653562
0.00653563
0.00653565
0.00653566
0.00653567
0.00653567
0.00653553
0.0065353
0.00653519
0.00653515
0.0065352
0.00653525
0.00653524
0.00653519
0.00653512
0.00653513
0.00653511
0.00617391
0.00617393
0.00617392
0.00617393
0.00617393
0.00617397
0.006174
0.00617398
0.00617394
0.00617393
0.00617391
0.0061739
0.006174
0.00617425
0.00617438
0.00617439
0.00617435
0.00617404
0.00617391
0.0061739
0.00617411
0.00617414
0.0061741
0.00617407
0.00617404
0.006174
0.00617397
0.00617395
0.00617392
0.0061738
0.0061739
0.00617393
0.00617394
0.00617397
0.006174
0.00617403
0.00617406
0.0061741
0.00617414
0.00617418
0.00617421
0.00617425
0.00617429
0.00617431
0.00617435
0.00617437
0.00617438
0.00617441
0.00617435
0.00617409
0.00617396
0.00617389
0.0061739
0.00617397
0.00617399
0.00617398
0.00617394
0.00617388
0.00617389
0.00617387
0.00584847
0.00584847
0.00584847
0.00584848
0.00584847
0.0058485
0.00584853
0.00584852
0.00584848
0.00584843
0.0058484
0.00584835
0.00584839
0.00584851
0.00584879
0.00584886
0.00584878
0.00584842
0.0058483
0.00584827
0.00584847
0.00584849
0.00584843
0.00584838
0.00584832
0.00584828
0.00584824
0.0058482
0.00584815
0.00584803
0.00584813
0.00584816
0.00584819
0.00584822
0.00584825
0.0058483
0.00584835
0.0058484
0.00584846
0.00584851
0.00584858
0.00584862
0.00584867
0.00584872
0.00584877
0.0058488
0.00584884
0.00584885
0.00584874
0.0058485
0.00584839
0.00584836
0.00584842
0.00584846
0.00584847
0.00584847
0.00584843
0.00584839
0.0058484
0.00584838
0.00555385
0.00555385
0.00555386
0.00555385
0.00555385
0.00555387
0.00555389
0.00555388
0.00555386
0.00555379
0.00555374
0.00555367
0.00555367
0.00555375
0.00555407
0.00555414
0.00555397
0.00555362
0.0055535
0.00555345
0.00555364
0.00555363
0.00555354
0.00555346
0.00555339
0.00555332
0.00555326
0.00555321
0.00555315
0.00555302
0.00555311
0.00555315
0.00555318
0.00555323
0.00555327
0.00555333
0.0055534
0.00555348
0.00555355
0.00555362
0.0055537
0.00555379
0.00555385
0.00555392
0.00555398
0.00555405
0.00555408
0.00555404
0.00555379
0.00555369
0.00555363
0.00555368
0.00555371
0.00555376
0.00555377
0.00555378
0.00555376
0.00555371
0.00555372
0.00555372
0.00528601
0.00528601
0.005286
0.00528601
0.00528599
0.005286
0.00528602
0.00528599
0.00528596
0.00528593
0.00528585
0.00528575
0.00528574
0.00528581
0.00528606
0.00528612
0.00528578
0.00528555
0.00528543
0.00528537
0.00528552
0.00528549
0.00528538
0.00528527
0.00528516
0.00528507
0.005285
0.00528492
0.00528484
0.0052847
0.0052848
0.00528483
0.00528487
0.00528492
0.00528498
0.00528506
0.00528515
0.00528525
0.00528535
0.00528545
0.00528555
0.00528565
0.00528576
0.00528585
0.00528593
0.00528601
0.00528606
0.00528599
0.00528575
0.00528567
0.00528568
0.00528571
0.00528575
0.00528581
0.00528583
0.00528585
0.00528582
0.0052858
0.0052858
0.0052858
0.00504153
0.00504153
0.00504152
0.00504151
0.00504151
0.00504151
0.00504152
0.00504148
0.00504144
0.0050414
0.00504133
0.0050412
0.00504113
0.00504114
0.00504121
0.00504138
0.00504105
0.00504085
0.00504072
0.00504063
0.00504069
0.00504066
0.00504054
0.00504039
0.00504025
0.00504013
0.00504002
0.00503993
0.00503984
0.00503968
0.00503977
0.00503981
0.00503985
0.00503991
0.00503999
0.00504009
0.00504021
0.00504033
0.00504046
0.0050406
0.00504072
0.00504085
0.00504098
0.00504109
0.0050412
0.00504129
0.00504128
0.00504118
0.00504106
0.00504102
0.00504105
0.0050411
0.00504115
0.00504122
0.00504124
0.00504126
0.00504125
0.00504122
0.00504124
0.00504123
0.00481756
0.00481757
0.00481756
0.00481755
0.00481753
0.00481754
0.00481753
0.0048175
0.00481744
0.00481738
0.0048173
0.00481719
0.00481707
0.00481702
0.00481704
0.00481715
0.00481688
0.00481667
0.00481648
0.00481635
0.00481624
0.00481629
0.00481616
0.00481598
0.0048158
0.00481565
0.00481551
0.00481539
0.00481527
0.00481511
0.00481519
0.00481523
0.00481528
0.00481535
0.00481545
0.00481558
0.00481571
0.00481587
0.00481602
0.00481619
0.00481636
0.00481652
0.00481667
0.00481683
0.00481695
0.00481702
0.00481694
0.00481693
0.00481689
0.00481687
0.00481692
0.00481699
0.00481705
0.00481712
0.00481716
0.00481719
0.00481718
0.00481716
0.00481717
0.00481717
0.00461171
0.00461171
0.0046117
0.00461169
0.00461167
0.00461166
0.00461164
0.00461161
0.00461155
0.00461147
0.00461139
0.00461126
0.00461113
0.00461099
0.00461091
0.00461086
0.00461075
0.00461057
0.00461036
0.00461016
0.00460998
0.00461002
0.00460986
0.00460964
0.00460942
0.00460922
0.00460904
0.0046089
0.00460876
0.00460858
0.00460865
0.00460868
0.00460874
0.00460883
0.00460895
0.0046091
0.00460927
0.00460946
0.00460966
0.00460985
0.00461006
0.00461026
0.00461044
0.00461063
0.00461076
0.00461082
0.00461077
0.00461083
0.0046108
0.00461081
0.00461088
0.00461096
0.00461104
0.00461111
0.00461116
0.00461119
0.0046112
0.00461119
0.0046112
0.0046112
0.0044219
0.0044219
0.00442189
0.00442187
0.00442185
0.00442184
0.00442182
0.00442177
0.0044217
0.00442162
0.00442152
0.00442138
0.00442124
0.00442109
0.00442092
0.00442081
0.00442073
0.00442053
0.00442027
0.00442003
0.00441979
0.00441979
0.00441957
0.0044193
0.00441903
0.00441879
0.00441857
0.00441839
0.00441822
0.00441802
0.00441808
0.00441812
0.00441818
0.00441829
0.00441843
0.00441861
0.00441882
0.00441904
0.00441928
0.00441953
0.00441977
0.00442001
0.00442023
0.00442043
0.00442053
0.00442058
0.00442066
0.00442073
0.00442075
0.0044208
0.00442088
0.00442097
0.00442106
0.00442114
0.0044212
0.00442125
0.00442125
0.00442125
0.00442127
0.00442127
0.00424638
0.00424639
0.00424637
0.00424635
0.00424633
0.00424631
0.00424629
0.00424623
0.00424616
0.00424607
0.00424596
0.0042458
0.00424564
0.00424546
0.00424528
0.00424514
0.00424502
0.00424478
0.00424448
0.00424418
0.00424389
0.00424382
0.00424355
0.00424322
0.0042429
0.0042426
0.00424233
0.00424211
0.00424191
0.00424168
0.00424173
0.00424177
0.00424185
0.00424197
0.00424215
0.00424236
0.00424261
0.00424288
0.00424316
0.00424345
0.00424374
0.00424402
0.00424428
0.00424447
0.00424451
0.00424466
0.00424479
0.00424491
0.00424497
0.00424505
0.00424517
0.00424527
0.00424537
0.00424546
0.00424552
0.00424557
0.00424559
0.0042456
0.00424562
0.00424561
0.00408365
0.00408364
0.00408363
0.00408362
0.00408359
0.00408357
0.00408354
0.00408347
0.0040834
0.0040833
0.00408317
0.00408301
0.00408283
0.00408263
0.00408243
0.00408225
0.00408209
0.00408181
0.00408145
0.0040811
0.00408076
0.00408057
0.00408028
0.00407989
0.0040795
0.00407914
0.00407882
0.00407855
0.00407831
0.00407806
0.00407809
0.00407813
0.00407822
0.00407836
0.00407857
0.00407883
0.00407912
0.00407944
0.00407977
0.00408011
0.00408044
0.00408077
0.00408107
0.00408126
0.00408135
0.00408153
0.00408171
0.00408182
0.00408193
0.00408206
0.0040822
0.00408232
0.00408244
0.00408254
0.00408262
0.00408267
0.00408269
0.00408271
0.00408273
0.00408273
0.00393238
0.00393237
0.00393237
0.00393234
0.00393232
0.0039323
0.00393226
0.00393219
0.00393211
0.00393201
0.00393187
0.00393169
0.0039315
0.00393128
0.00393105
0.00393084
0.00393064
0.00393031
0.00392991
0.00392948
0.00392906
0.00392867
0.00392841
0.003928
0.00392754
0.00392711
0.00392672
0.00392639
0.00392611
0.00392583
0.00392585
0.00392588
0.00392598
0.00392616
0.0039264
0.0039267
0.00392705
0.00392742
0.00392781
0.00392821
0.0039286
0.00392896
0.00392922
0.00392942
0.00392964
0.00392988
0.0039301
0.00393023
0.00393037
0.00393054
0.0039307
0.00393084
0.00393096
0.00393108
0.00393117
0.00393123
0.00393126
0.00393127
0.0039313
0.0039313
0.00379144
0.00379143
0.00379142
0.0037914
0.00379138
0.00379136
0.00379131
0.00379124
0.00379116
0.00379105
0.00379091
0.00379072
0.00379051
0.00379027
0.00379001
0.00378977
0.00378953
0.00378916
0.0037887
0.00378821
0.0037877
0.0037872
0.00378689
0.00378641
0.00378587
0.00378536
0.00378491
0.00378451
0.00378417
0.00378386
0.00378386
0.00378389
0.00378401
0.00378421
0.0037845
0.00378486
0.00378526
0.0037857
0.00378616
0.00378661
0.00378705
0.00378743
0.00378764
0.00378795
0.00378825
0.00378855
0.0037888
0.00378897
0.00378915
0.00378934
0.00378952
0.00378968
0.00378981
0.00378994
0.00379004
0.0037901
0.00379014
0.00379017
0.00379019
0.0037902
0.00365983
0.00365983
0.00365981
0.0036598
0.00365977
0.00365975
0.00365972
0.00365964
0.00365956
0.00365944
0.00365929
0.0036591
0.00365887
0.00365862
0.00365833
0.00365805
0.00365777
0.00365735
0.00365685
0.00365629
0.00365571
0.00365513
0.00365468
0.00365414
0.00365352
0.00365292
0.00365237
0.0036519
0.00365151
0.00365116
0.00365113
0.00365116
0.00365129
0.00365154
0.00365188
0.0036523
0.00365277
0.00365328
0.00365379
0.0036543
0.0036548
0.00365521
0.00365548
0.00365585
0.00365622
0.00365655
0.00365679
0.00365701
0.00365724
0.00365747
0.00365767
0.00365784
0.00365799
0.00365813
0.00365823
0.00365831
0.00365835
0.00365838
0.00365841
0.00365842
0.00353668
0.00353668
0.00353667
0.00353665
0.00353663
0.00353661
0.00353658
0.0035365
0.00353642
0.0035363
0.00353615
0.00353595
0.00353572
0.00353545
0.00353514
0.00353482
0.00353448
0.00353404
0.00353349
0.00353286
0.00353218
0.0035315
0.00353083
0.00353029
0.0035296
0.0035289
0.00352826
0.00352771
0.00352724
0.00352685
0.00352679
0.00352682
0.00352698
0.00352726
0.00352766
0.00352815
0.00352869
0.00352928
0.00352985
0.00353039
0.00353091
0.00353135
0.00353178
0.00353222
0.00353265
0.003533
0.00353327
0.00353354
0.00353381
0.00353406
0.00353428
0.00353446
0.00353463
0.00353477
0.00353488
0.00353496
0.00353502
0.00353505
0.00353508
0.00353509
0.00342123
0.00342122
0.00342122
0.0034212
0.00342118
0.00342116
0.00342113
0.00342107
0.00342099
0.00342087
0.00342072
0.00342052
0.00342029
0.00342
0.00341966
0.00341928
0.00341889
0.00341844
0.00341785
0.00341716
0.0034164
0.0034156
0.0034148
0.00341417
0.00341338
0.00341257
0.00341182
0.00341117
0.00341062
0.00341016
0.00341008
0.00341011
0.00341029
0.00341062
0.00341109
0.00341166
0.00341229
0.00341293
0.00341357
0.00341418
0.0034147
0.00341524
0.00341579
0.0034163
0.00341676
0.00341711
0.00341743
0.00341776
0.00341807
0.00341834
0.00341857
0.00341877
0.00341895
0.0034191
0.00341922
0.00341931
0.00341937
0.00341941
0.00341944
0.00341945
0.00331278
0.00331278
0.00331277
0.00331277
0.00331275
0.00331273
0.00331271
0.00331266
0.00331258
0.00331247
0.00331232
0.00331213
0.00331189
0.0033116
0.00331125
0.00331084
0.00331041
0.00330993
0.00330929
0.00330853
0.00330769
0.0033068
0.00330587
0.00330509
0.0033042
0.00330327
0.00330239
0.00330162
0.00330098
0.00330046
0.00330032
0.00330035
0.00330056
0.00330095
0.0033015
0.00330217
0.00330287
0.00330357
0.0033043
0.003305
0.0033056
0.00330623
0.00330684
0.0033074
0.00330788
0.00330828
0.00330865
0.00330901
0.00330934
0.00330963
0.00330988
0.0033101
0.00331028
0.00331045
0.00331057
0.00331067
0.00331073
0.00331077
0.00331081
0.00331082
0.00321074
0.00321074
0.00321074
0.00321073
0.00321072
0.00321072
0.0032107
0.00321066
0.00321059
0.00321049
0.00321036
0.00321017
0.00320994
0.00320965
0.00320929
0.00320887
0.0032084
0.00320787
0.00320721
0.00320639
0.00320547
0.00320446
0.00320343
0.00320242
0.00320158
0.00320052
0.00319951
0.00319861
0.00319785
0.00319723
0.00319703
0.00319705
0.00319728
0.00319773
0.00319837
0.00319914
0.00319983
0.00320063
0.00320138
0.00320217
0.00320292
0.00320365
0.00320432
0.0032049
0.0032054
0.00320585
0.00320628
0.00320668
0.00320703
0.00320734
0.00320761
0.00320783
0.00320803
0.0032082
0.00320833
0.00320843
0.0032085
0.00320854
0.00320858
0.00320859
0.00311456
0.00311457
0.00311457
0.00311457
0.00311457
0.00311457
0.00311457
0.00311454
0.00311448
0.0031144
0.00311428
0.00311411
0.00311389
0.00311361
0.00311326
0.00311282
0.00311231
0.00311173
0.00311106
0.00311022
0.00310924
0.00310814
0.003107
0.00310645
0.00315169
0.00315063
0.00314954
0.00314855
0.00314771
0.00314702
0.00314677
0.00314676
0.003147
0.00314748
0.00314817
0.00314898
0.00310312
0.00310357
0.00310444
0.00310533
0.00310618
0.00310697
0.00310769
0.00310828
0.00310882
0.00310933
0.00310981
0.00311023
0.0031106
0.00311093
0.00311121
0.00311144
0.00311164
0.00311182
0.00311196
0.00311206
0.00311214
0.00311219
0.00311222
0.00311224
0.00302378
0.00302378
0.00302379
0.0030238
0.00302381
0.00302382
0.00302383
0.00302382
0.00302378
0.00302372
0.00302362
0.00302347
0.00302328
0.00302302
0.00302268
0.00302225
0.00302172
0.00302111
0.00302041
0.00301958
0.00301857
0.00301742
0.00301675
0.00305955
0.00305654
0.0030555
0.00305429
0.00305314
0.00305213
0.00305126
0.00305087
0.00305077
0.00305097
0.00305149
0.00305227
0.00305308
0.00305588
0.0030124
0.00301302
0.00301398
0.0030149
0.00301574
0.00301648
0.00301711
0.00301769
0.00301825
0.00301875
0.00301919
0.00301958
0.00301992
0.00302021
0.00302045
0.00302066
0.00302084
0.00302098
0.00302109
0.00302117
0.00302122
0.00302126
0.00302127
0.00293795
0.00293795
0.00293797
0.00293798
0.00293801
0.00293804
0.00293806
0.00293807
0.00293806
0.00293802
0.00293795
0.00293783
0.00293767
0.00293744
0.00293713
0.00293673
0.00293622
0.00293561
0.00293491
0.00293409
0.00293309
0.00293195
0.00293169
0.00297015
0.0029674
0.0029878
0.00298667
0.00298544
0.00298428
0.00298321
0.00298264
0.00298236
0.00298246
0.00298295
0.00298378
0.00296296
0.00296544
0.00292631
0.00292666
0.00292767
0.00292863
0.00292949
0.00293024
0.00293092
0.00293157
0.00293216
0.00293268
0.00293314
0.00293354
0.00293388
0.00293418
0.00293443
0.00293464
0.00293483
0.00293498
0.00293509
0.00293516
0.00293522
0.00293526
0.00293527
0.00285668
0.00285669
0.00285671
0.00285674
0.00285678
0.00285682
0.00285687
0.0028569
0.00285692
0.00285691
0.00285688
0.0028568
0.00285667
0.00285649
0.00285623
0.00285588
0.00285542
0.00285484
0.00285415
0.00285337
0.00285246
0.00285145
0.00285167
0.00288625
0.002884
0.00290212
0.00290157
0.00290029
0.00289893
0.00289759
0.00289656
0.00289581
0.00289553
0.00289578
0.00289642
0.00287845
0.00287994
0.00284504
0.00284501
0.00284601
0.00284698
0.00284785
0.00284864
0.00284938
0.00285006
0.00285067
0.00285121
0.00285168
0.00285209
0.00285244
0.00285274
0.002853
0.00285322
0.0028534
0.00285355
0.00285366
0.00285374
0.00285379
0.00285384
0.00285385
0.00277964
0.00277965
0.00277968
0.00277972
0.00277977
0.00277984
0.0027799
0.00277996
0.00278001
0.00278004
0.00278005
0.00278002
0.00277995
0.00277983
0.00277963
0.00277935
0.00277897
0.00277848
0.00277788
0.00277718
0.00277642
0.00277568
0.00277658
0.00280791
0.0028062
0.00282242
0.00282309
0.00282202
0.00282076
0.00281926
0.00281765
0.002816
0.00281475
0.00281415
0.00281429
0.00279915
0.00279918
0.00276824
0.00276772
0.00276866
0.00276962
0.00277051
0.00277135
0.00277213
0.00277283
0.00277345
0.00277399
0.00277447
0.00277488
0.00277524
0.00277554
0.0027758
0.00277602
0.00277621
0.00277636
0.00277647
0.00277655
0.0027766
0.00277665
0.00277666
0.0027065
0.00270652
0.00270656
0.00270661
0.00270668
0.00270676
0.00270685
0.00270694
0.00270702
0.0027071
0.00270716
0.00270718
0.00270718
0.00270713
0.00270702
0.00270684
0.00270658
0.00270623
0.00270579
0.00270529
0.00270481
0.00270451
0.00270642
0.00273519
0.00273436
0.00274982
0.0027527
0.00275326
0.00275361
0.00275284
0.00275018
0.00274599
0.00274173
0.00273863
0.00273722
0.0027252
0.00272294
0.00269554
0.00269447
0.0026953
0.00269627
0.0026972
0.00269807
0.00269885
0.00269955
0.00270018
0.00270072
0.0027012
0.00270162
0.00270197
0.00270228
0.00270254
0.00270276
0.00270294
0.00270309
0.0027032
0.00270328
0.00270334
0.00270338
0.00270339
0.00263698
0.002637
0.00263705
0.00263711
0.0026372
0.00263731
0.00263742
0.00263755
0.00263767
0.00263779
0.00263791
0.002638
0.00263807
0.00263811
0.00263811
0.00263806
0.00263796
0.00263781
0.00263763
0.00263747
0.00263745
0.00263793
0.00264139
0.0026684
0.00266932
0.00268577
0.00269434
0.00270135
0.00271029
0.00271549
0.00271028
0.00269631
0.00268149
0.0026712
0.00266566
0.00265622
0.002651
0.00262662
0.00262506
0.00262575
0.00262669
0.00262762
0.00262847
0.00262925
0.00262995
0.00263057
0.00263112
0.00263159
0.002632
0.00263236
0.00263266
0.00263292
0.00263313
0.00263331
0.00263346
0.00263357
0.00263365
0.00263371
0.00263374
0.00263376
0.00257082
0.00257085
0.0025709
0.00257098
0.00257108
0.00257121
0.00257136
0.00257152
0.00257169
0.00257186
0.00257203
0.0025722
0.00257236
0.00257251
0.00257264
0.00257275
0.00257285
0.00257296
0.00257312
0.00257346
0.00257416
0.00257596
0.00258177
0.00260792
0.00261256
0.00263377
0.00265563
0.0026875
0.00274157
0.00279036
0.00277572
0.00270977
0.00265048
0.00261702
0.00260135
0.00259177
0.00258326
0.00256112
0.00255919
0.00255973
0.00256059
0.00256148
0.00256231
0.00256307
0.00256376
0.00256437
0.00256491
0.00256538
0.00256578
0.00256613
0.00256643
0.00256668
0.00256689
0.00256707
0.00256721
0.00256732
0.0025674
0.00256745
0.00256749
0.00256751
0.00250778
0.00250781
0.00250788
0.00250797
0.00250809
0.00250824
0.00250842
0.00250862
0.00250883
0.00250906
0.0025093
0.00250955
0.0025098
0.00251007
0.00251035
0.00251065
0.00251099
0.00251143
0.00251205
0.00251305
0.00251475
0.00251859
0.00252791
0.00255437
0.00256595
0.00259825
0.00265145
0.00277077
0.00292281
0.00304968
0.00303132
0.00288647
0.00270527
0.00258937
0.00254787
0.0025312
0.00251959
0.00249878
0.00249655
0.00249694
0.00249769
0.00249854
0.00249934
0.00250008
0.00250075
0.00250134
0.00250187
0.00250233
0.00250273
0.00250306
0.00250335
0.0025036
0.0025038
0.00250398
0.00250411
0.00250422
0.00250429
0.00250434
0.00250438
0.0025044
0.00244765
0.00244769
0.00244776
0.00244787
0.00244801
0.00244818
0.00244839
0.00244862
0.00244889
0.00244917
0.00244948
0.00244981
0.00245017
0.00245057
0.00245101
0.00245152
0.00245215
0.00245298
0.00245415
0.00245599
0.00245897
0.00246567
0.00247969
0.00250806
0.0025316
0.00258318
0.00270011
0.00292775
0.00330651
0.00416169
0.00404039
0.00333142
0.00289014
0.00261465
0.00250945
0.00247482
0.00245991
0.00243921
0.00243683
0.00243709
0.00243774
0.00243855
0.00243931
0.00244003
0.00244068
0.00244126
0.00244177
0.00244222
0.0024426
0.00244293
0.00244321
0.00244345
0.00244365
0.00244381
0.00244394
0.00244405
0.00244412
0.00244417
0.0024442
0.00244422
0.00239024
0.00239028
0.00239036
0.00239048
0.00239063
0.00239084
0.00239107
0.00239134
0.00239165
0.002392
0.00239237
0.00239279
0.00239326
0.0023938
0.00239441
0.00239515
0.00239609
0.00239735
0.00239916
0.00240199
0.00240652
0.00241682
0.00243649
0.00246858
0.00251005
0.00258826
0.00278847
0.00312494
0.00495209
0.00480821
0.00319433
0.00270853
0.00248638
0.00242319
0.00240334
0.00238217
0.00237972
0.00237993
0.0023805
0.00238127
0.00238202
0.00238271
0.00238335
0.00238391
0.0023844
0.00238484
0.00238521
0.00238553
0.0023858
0.00238603
0.00238622
0.00238638
0.0023865
0.0023866
0.00238667
0.00238672
0.00238676
0.00238678
0.00233535
0.0023354
0.00233548
0.00233562
0.00233579
0.00233602
0.00233628
0.00233659
0.00233695
0.00233734
0.00233779
0.00233829
0.00233887
0.00233955
0.00234034
0.00234132
0.00234259
0.00234432
0.0023468
0.00235074
0.00235697
0.00237134
0.00239704
0.00243509
0.00250035
0.00261125
0.00291039
0.00342211
0.00640302
0.072277
0.027585
0.0035149
0.00281961
0.00246687
0.00237629
0.00234901
0.00232757
0.00232515
0.00232532
0.00232585
0.00232661
0.00232734
0.00232801
0.00232862
0.00232917
0.00232964
0.00233006
0.00233041
0.00233072
0.00233097
0.00233119
0.00233137
0.00233152
0.00233164
0.00233173
0.00233179
0.00233184
0.00233187
0.0023319
0.00228283
0.00228288
0.00228298
0.00228312
0.00228332
0.00228356
0.00228386
0.0022842
0.0022846
0.00228505
0.00228556
0.00228615
0.00228683
0.00228764
0.00228861
0.00228983
0.00229142
0.00229361
0.00229679
0.00230186
0.00230982
0.00232828
0.0023596
0.00240629
0.00249828
0.00265279
0.00316579
0.00612249
0.170547
0.26617
0.208424
0.026145
0.00383207
0.00289581
0.00243636
0.00233155
0.00229629
0.00227521
0.00227296
0.00227309
0.00227361
0.00227438
0.00227509
0.00227575
0.00227634
0.00227685
0.00227731
0.0022777
0.00227803
0.00227832
0.00227856
0.00227876
0.00227892
0.00227906
0.00227917
0.00227926
0.00227931
0.00227936
0.00227939
0.00227941
0.00223253
0.00223258
0.00223269
0.00223285
0.00223305
0.00223332
0.00223364
0.00223402
0.00223445
0.00223496
0.00223553
0.0022362
0.00223698
0.0022379
0.00223904
0.00224047
0.00224237
0.002245
0.00224882
0.00225496
0.00226458
0.00228657
0.00232256
0.00237991
0.00249656
0.00269526
0.00354941
0.0077109
0.189394
0.395865
0.27597
0.0331794
0.00448789
0.00297454
0.0024009
0.00228498
0.00224561
0.002225
0.00222302
0.00222313
0.00222364
0.00222441
0.00222511
0.00222575
0.00222631
0.00222681
0.00222723
0.0022276
0.00222791
0.00222818
0.00222839
0.00222858
0.00222873
0.00222885
0.00222895
0.00222903
0.00222908
0.00222912
0.00222914
0.00222916
0.00218431
0.00218437
0.00218448
0.00218465
0.00218487
0.00218515
0.0021855
0.0021859
0.00218637
0.00218692
0.00218755
0.00218828
0.00218915
0.00219018
0.00219146
0.00219308
0.00219522
0.00219821
0.00220263
0.00220973
0.00222108
0.00224566
0.00228539
0.00235303
0.00249021
0.00270974
0.00393185
0.00684689
0.10697
0.259254
0.359045
0.11232
0.00527502
0.00318468
0.00239688
0.00223839
0.0021986
0.00217709
0.00217523
0.00217539
0.00217585
0.00217661
0.00217729
0.0021779
0.00217843
0.00217889
0.00217929
0.00217962
0.00217991
0.00218015
0.00218034
0.00218051
0.00218064
0.00218075
0.00218084
0.00218091
0.00218095
0.00218098
0.00218101
0.00218102
0.00213804
0.0021381
0.00213822
0.00213839
0.00213863
0.00213893
0.0021393
0.00213972
0.00214023
0.00214081
0.00214149
0.00214228
0.00214321
0.00214433
0.00214571
0.00214745
0.0021498
0.00215314
0.00215809
0.00216596
0.00217899
0.00220506
0.00224818
0.00232415
0.00248285
0.00271099
0.00420949
0.00618363
0.0504635
0.159083
0.241637
0.151824
0.0121831
0.00384121
0.00248902
0.00221238
0.00215742
0.00213226
0.00212962
0.00212981
0.00213013
0.00213084
0.00213148
0.00213205
0.00213255
0.00213297
0.00213333
0.00213364
0.00213389
0.0021341
0.00213428
0.00213442
0.00213454
0.00213464
0.00213471
0.00213476
0.0021348
0.00213482
0.00213484
0.00213486
0.00209361
0.00209367
0.0020938
0.00209398
0.00209422
0.00209454
0.00209492
0.00209537
0.0020959
0.00209651
0.00209723
0.00209806
0.00209904
0.00210019
0.00210163
0.00210352
0.00210608
0.00210968
0.00211505
0.00212344
0.00213793
0.00216473
0.00221174
0.00229487
0.00247798
0.00274772
0.00430076
0.00595247
0.0230244
0.092348
0.170559
0.206266
0.0589797
0.00763569
0.00274435
0.00223917
0.0021251
0.00209164
0.00208626
0.00208626
0.00208636
0.00208697
0.00208755
0.0020881
0.00208856
0.00208894
0.00208926
0.00208953
0.00208975
0.00208993
0.00209008
0.0020902
0.0020903
0.00209038
0.00209044
0.00209048
0.00209051
0.00209053
0.00209054
0.00209056
0.0020509
0.00205097
0.0020511
0.00205129
0.00205154
0.00205186
0.00205226
0.00205273
0.00205328
0.00205391
0.00205465
0.0020555
0.00205649
0.0020577
0.00205924
0.00206123
0.00206391
0.00206767
0.00207333
0.00208201
0.0020976
0.00212485
0.00217724
0.00226878
0.0024743
0.00283611
0.00423205
0.00588
0.0114917
0.0476633
0.108884
0.173821
0.132363
0.0214627
0.00337317
0.00232384
0.00210676
0.00205653
0.00204545
0.00204469
0.00204452
0.00204501
0.00204547
0.00204593
0.00204633
0.00204667
0.00204695
0.00204718
0.00204737
0.00204752
0.00204764
0.00204774
0.00204781
0.00204788
0.00204792
0.00204795
0.00204797
0.00204798
0.00204799
0.00204801
0.00200982
0.0020099
0.00201002
0.00201022
0.00201048
0.00201081
0.00201122
0.0020117
0.00201226
0.0020129
0.00201363
0.00201449
0.00201553
0.0020168
0.00201839
0.00202043
0.00202317
0.002027
0.00203282
0.00204162
0.00205782
0.00208558
0.0021457
0.00224933
0.00247091
0.00298478
0.00416434
0.00587644
0.00743618
0.0213265
0.0573845
0.118079
0.155083
0.0392724
0.00472945
0.00242681
0.00210486
0.00202699
0.00200736
0.00200506
0.00200447
0.00200477
0.00200512
0.00200545
0.00200576
0.00200604
0.0020063
0.00200649
0.00200664
0.00200676
0.00200685
0.00200693
0.00200698
0.00200702
0.00200705
0.00200707
0.00200708
0.00200709
0.00200709
0.00200711
0.00197028
0.00197036
0.00197049
0.00197069
0.00197095
0.00197129
0.0019717
0.00197219
0.00197275
0.00197339
0.00197412
0.00197502
0.00197608
0.00197738
0.00197898
0.00198102
0.00198377
0.0019876
0.00199345
0.00200223
0.00201858
0.002047
0.00211714
0.00223999
0.00247265
0.00322547
0.00471175
0.00713916
0.00708556
0.010437
0.028513
0.0835883
0.151949
0.0496697
0.00632097
0.00250397
0.00211326
0.00200198
0.00197178
0.00196716
0.00196612
0.00196613
0.00196636
0.00196659
0.0019668
0.001967
0.00196719
0.00196736
0.00196748
0.00196756
0.00196763
0.00196767
0.00196771
0.00196773
0.00196774
0.00196775
0.00196775
0.00196775
0.00196775
0.00196776
0.00193219
0.00193227
0.0019324
0.0019326
0.00193287
0.00193321
0.00193363
0.00193411
0.00193466
0.0019353
0.00193607
0.00193697
0.00193805
0.00193934
0.00194093
0.00194296
0.00194568
0.00194945
0.0019552
0.00196387
0.00198004
0.00200895
0.00209049
0.00224058
0.00249291
0.00355959
0.00705087
0.0125371
0.0108789
0.00841091
0.021128
0.0801562
0.148351
0.0506822
0.0073544
0.00253603
0.00212159
0.00197973
0.00193834
0.00193078
0.00192929
0.00192905
0.00192906
0.00192919
0.00192932
0.00192944
0.00192957
0.00192968
0.00192978
0.00192984
0.00192987
0.00192989
0.0019299
0.00192991
0.0019299
0.0019299
0.00192989
0.00192988
0.00192987
0.00192988
0.00189548
0.00189556
0.00189569
0.00189589
0.00189616
0.0018965
0.00189689
0.00189737
0.00189793
0.0018986
0.00189937
0.00190027
0.00190134
0.00190262
0.00190419
0.00190618
0.00190884
0.00191251
0.0019181
0.00192662
0.00194237
0.00197136
0.0020635
0.00224227
0.00251304
0.00445206
0.0220605
0.0208949
0.0147923
0.00989834
0.0309177
0.0942643
0.138486
0.0470053
0.00765088
0.00252969
0.00212293
0.00195843
0.00190651
0.00189578
0.00189383
0.00189337
0.00189322
0.00189317
0.00189319
0.00189324
0.00189333
0.0018934
0.00189345
0.00189349
0.0018935
0.00189349
0.00189348
0.00189347
0.00189345
0.00189343
0.00189341
0.0018934
0.00189339
0.00189339
0.00186006
0.00186014
0.00186027
0.00186047