/*--------------------------------*- C++ -*----------------------------------*\
  =========                 |
  \\      /  F ield         | OpenFOAM: The Open Source CFD Toolbox
   \\    /   O peration     | Website:  https://openfoam.org
    \\  /    A nd           | Version:  12
     \\/     M anipulation  |
\*---------------------------------------------------------------------------*/
FoamFile
{
    format      ascii;
    class       volScalarField;
    location    "180";
    object      nut;
}
// * * * * * * * * * * * * * * * * * * * * * * * * * * * * * * * * * * * * * //

dimensions      [0 2 -1 0 0 0 0];

internalField   nonuniform List<scalar> 
16227
(
0.000978543
0.000978543
0.000978543
0.000978543
0.000978543
0.000978543
0.000978543
0.000978543
0.000978543
0.000978543
0.000978543
0.000978543
0.000978544
0.000978544
0.000978544
0.000978544
0.000978544
0.000978544
0.000978544
0.000978544
0.000978544
0.000978544
0.000978544
0.000978544
0.000978544
0.000978544
0.000978544
0.000978544
0.000978544
0.000978544
0.000978544
0.000978544
0.000978544
0.000978544
0.000978544
0.000978544
0.000978544
0.000978544
0.000978544
0.000978544
0.000978544
0.000978544
0.000978544
0.000978544
0.000978544
0.000978544
0.000978544
0.000978544
0.000978544
0.000978544
0.000978544
0.000978543
0.000978543
0.000978543
0.000978543
0.000978543
0.000978543
0.000978543
0.000978543
0.000978543
0.000972834
0.000972834
0.000972834
0.000972834
0.000972834
0.000972834
0.000972834
0.000972834
0.000972834
0.000972834
0.000972835
0.000972835
0.000972836
0.000972836
0.000972837
0.000972837
0.000972837
0.000972837
0.000972837
0.000972837
0.000972837
0.000972837
0.000972837
0.000972837
0.000972837
0.000972837
0.000972837
0.000972837
0.000972836
0.000972836
0.000972837
0.000972837
0.000972837
0.000972837
0.000972837
0.000972837
0.000972836
0.000972836
0.000972836
0.000972837
0.000972837
0.000972837
0.000972837
0.000972836
0.000972836
0.000972836
0.000972836
0.000972836
0.000972836
0.000972836
0.000972836
0.000972836
0.000972835
0.000972835
0.000972834
0.000972834
0.000972835
0.000972834
0.000972834
0.000972834
0.000967494
0.000967494
0.000967494
0.000967494
0.000967494
0.000967495
0.000967495
0.000967495
0.000967495
0.000967495
0.000967495
0.000967495
0.000967497
0.000967498
0.000967498
0.000967498
0.000967498
0.000967498
0.000967498
0.000967498
0.000967498
0.000967498
0.000967498
0.000967498
0.000967498
0.000967498
0.000967498
0.000967498
0.000967498
0.000967497
0.000967498
0.000967498
0.000967498
0.000967498
0.000967498
0.000967498
0.000967498
0.000967498
0.000967498
0.000967498
0.000967498
0.000967498
0.000967498
0.000967498
0.000967498
0.000967498
0.000967498
0.000967498
0.000967498
0.000967497
0.000967497
0.000967495
0.000967495
0.000967495
0.000967495
0.000967495
0.000967495
0.000967494
0.000967494
0.000967494
0.000962481
0.000962481
0.000962481
0.000962481
0.000962482
0.000962482
0.000962482
0.000962482
0.000962482
0.000962482
0.000962482
0.000962483
0.000962485
0.000962486
0.000962486
0.000962486
0.000962486
0.000962487
0.000962486
0.000962485
0.000962486
0.000962486
0.000962486
0.000962486
0.000962486
0.000962486
0.000962486
0.000962486
0.000962485
0.000962485
0.000962485
0.000962485
0.000962485
0.000962485
0.000962485
0.000962485
0.000962486
0.000962485
0.000962486
0.000962486
0.000962486
0.000962486
0.000962486
0.000962486
0.000962486
0.000962486
0.000962486
0.000962486
0.000962486
0.000962485
0.000962484
0.000962482
0.000962482
0.000962482
0.000962482
0.000962482
0.000962482
0.000962481
0.000962481
0.000962481
0.00095776
0.00095776
0.000957761
0.000957761
0.000957761
0.000957761
0.000957762
0.000957761
0.000957761
0.000957761
0.000957761
0.000957762
0.000957764
0.000957766
0.000957766
0.000957766
0.000957766
0.000957766
0.000957764
0.000957763
0.000957765
0.000957765
0.000957765
0.000957765
0.000957765
0.000957765
0.000957764
0.000957764
0.000957764
0.000957763
0.000957764
0.000957764
0.000957764
0.000957764
0.000957764
0.000957764
0.000957764
0.000957764
0.000957764
0.000957764
0.000957764
0.000957764
0.000957764
0.000957764
0.000957765
0.000957765
0.000957765
0.000957765
0.000957765
0.000957764
0.000957761
0.00095776
0.00095776
0.00095776
0.00095776
0.000957761
0.00095776
0.00095776
0.00095776
0.00095776
0.000953301
0.000953301
0.000953301
0.000953301
0.000953301
0.000953302
0.000953302
0.000953302
0.000953302
0.000953302
0.000953302
0.000953302
0.000953303
0.000953306
0.000953307
0.000953307
0.000953307
0.000953306
0.000953303
0.000953303
0.000953305
0.000953306
0.000953305
0.000953305
0.000953305
0.000953304
0.000953304
0.000953304
0.000953303
0.000953302
0.000953303
0.000953303
0.000953303
0.000953303
0.000953303
0.000953303
0.000953303
0.000953303
0.000953303
0.000953304
0.000953304
0.000953304
0.000953304
0.000953304
0.000953304
0.000953305
0.000953305
0.000953305
0.000953305
0.000953303
0.000953301
0.0009533
0.0009533
0.0009533
0.000953301
0.000953301
0.0009533
0.000953299
0.0009533
0.000953299
0.000949078
0.000949078
0.000949078
0.000949078
0.000949078
0.000949079
0.000949079
0.000949079
0.000949079
0.000949079
0.000949078
0.000949078
0.000949079
0.000949083
0.000949084
0.000949084
0.000949084
0.00094908
0.000949079
0.000949079
0.000949081
0.000949081
0.000949081
0.00094908
0.00094908
0.000949079
0.000949079
0.000949078
0.000949077
0.000949076
0.000949077
0.000949077
0.000949077
0.000949077
0.000949077
0.000949077
0.000949077
0.000949077
0.000949078
0.000949078
0.000949078
0.000949079
0.000949079
0.000949079
0.00094908
0.00094908
0.00094908
0.00094908
0.00094908
0.000949077
0.000949075
0.000949075
0.000949075
0.000949076
0.000949076
0.000949076
0.000949075
0.000949075
0.000949075
0.000949075
0.000945069
0.000945069
0.000945069
0.000945069
0.000945069
0.000945069
0.00094507
0.00094507
0.00094507
0.000945069
0.000945069
0.000945068
0.000945069
0.00094507
0.000945074
0.000945075
0.000945074
0.00094507
0.000945068
0.000945068
0.00094507
0.00094507
0.000945069
0.000945069
0.000945068
0.000945067
0.000945066
0.000945065
0.000945064
0.000945062
0.000945063
0.000945063
0.000945063
0.000945063
0.000945063
0.000945063
0.000945064
0.000945064
0.000945064
0.000945065
0.000945066
0.000945066
0.000945067
0.000945067
0.000945068
0.000945068
0.000945069
0.000945069
0.000945067
0.000945064
0.000945063
0.000945063
0.000945064
0.000945064
0.000945065
0.000945065
0.000945064
0.000945064
0.000945064
0.000945064
0.000941254
0.000941254
0.000941254
0.000941254
0.000941254
0.000941255
0.000941255
0.000941255
0.000941255
0.000941254
0.000941254
0.000941253
0.000941253
0.000941254
0.000941259
0.00094126
0.000941258
0.000941253
0.000941252
0.000941251
0.000941253
0.000941253
0.000941252
0.00094125
0.000941249
0.000941248
0.000941247
0.000941246
0.000941244
0.000941242
0.000941243
0.000941243
0.000941242
0.000941242
0.000941242
0.000941243
0.000941243
0.000941244
0.000941244
0.000941245
0.000941246
0.000941247
0.000941248
0.000941248
0.000941249
0.00094125
0.00094125
0.00094125
0.000941247
0.000941246
0.000941245
0.000941246
0.000941247
0.000941247
0.000941247
0.000941248
0.000941247
0.000941247
0.000941247
0.000941247
0.000937617
0.000937617
0.000937617
0.000937618
0.000937617
0.000937618
0.000937618
0.000937618
0.000937618
0.000937618
0.000937617
0.000937616
0.000937616
0.000937617
0.00093762
0.000937622
0.000937617
0.000937614
0.000937613
0.000937612
0.000937614
0.000937613
0.000937611
0.000937609
0.000937608
0.000937606
0.000937604
0.000937602
0.000937601
0.000937598
0.000937599
0.000937598
0.000937598
0.000937598
0.000937598
0.000937598
0.000937599
0.0009376
0.000937601
0.000937602
0.000937603
0.000937604
0.000937605
0.000937606
0.000937607
0.000937609
0.000937609
0.000937608
0.000937605
0.000937604
0.000937605
0.000937605
0.000937606
0.000937607
0.000937607
0.000937608
0.000937607
0.000937607
0.000937607
0.000937607
0.000934144
0.000934144
0.000934144
0.000934144
0.000934144
0.000934144
0.000934144
0.000934144
0.000934144
0.000934144
0.000934143
0.000934142
0.000934141
0.000934141
0.000934143
0.000934145
0.000934141
0.000934138
0.000934136
0.000934135
0.000934136
0.000934135
0.000934133
0.000934131
0.000934128
0.000934126
0.000934123
0.000934121
0.000934119
0.000934116
0.000934116
0.000934116
0.000934115
0.000934115
0.000934115
0.000934116
0.000934116
0.000934117
0.000934119
0.00093412
0.000934121
0.000934123
0.000934125
0.000934126
0.000934128
0.000934129
0.000934129
0.000934128
0.000934126
0.000934126
0.000934126
0.000934127
0.000934128
0.000934129
0.00093413
0.00093413
0.00093413
0.00093413
0.00093413
0.00093413
0.00093082
0.00093082
0.00093082
0.00093082
0.00093082
0.00093082
0.000930821
0.000930821
0.00093082
0.00093082
0.000930819
0.000930818
0.000930816
0.000930816
0.000930817
0.000930819
0.000930815
0.000930812
0.00093081
0.000930808
0.000930806
0.000930806
0.000930804
0.000930801
0.000930798
0.000930794
0.000930791
0.000930789
0.000930786
0.000930782
0.000930782
0.000930781
0.00093078
0.00093078
0.00093078
0.000930781
0.000930782
0.000930783
0.000930785
0.000930787
0.000930789
0.00093079
0.000930793
0.000930795
0.000930796
0.000930798
0.000930796
0.000930796
0.000930796
0.000930796
0.000930797
0.000930798
0.0009308
0.000930801
0.000930802
0.000930802
0.000930802
0.000930802
0.000930803
0.000930803
0.000927635
0.000927635
0.000927635
0.000927635
0.000927635
0.000927635
0.000927635
0.000927635
0.000927635
0.000927634
0.000927634
0.000927632
0.000927631
0.000927629
0.000927628
0.000927628
0.000927627
0.000927625
0.000927621
0.000927619
0.000927616
0.000927616
0.000927613
0.000927609
0.000927605
0.000927601
0.000927597
0.000927593
0.00092759
0.000927585
0.000927585
0.000927583
0.000927583
0.000927582
0.000927582
0.000927583
0.000927584
0.000927586
0.000927588
0.00092759
0.000927593
0.000927595
0.000927598
0.0009276
0.000927602
0.000927603
0.000927603
0.000927604
0.000927604
0.000927604
0.000927606
0.000927607
0.000927609
0.00092761
0.000927611
0.000927612
0.000927612
0.000927612
0.000927613
0.000927613
0.000924578
0.000924578
0.000924578
0.000924578
0.000924578
0.000924578
0.000924579
0.000924579
0.000924578
0.000924578
0.000924577
0.000924575
0.000924573
0.000924572
0.00092457
0.000924569
0.000924568
0.000924565
0.000924562
0.000924558
0.000924554
0.000924554
0.00092455
0.000924545
0.000924539
0.000924534
0.000924529
0.000924525
0.00092452
0.000924515
0.000924514
0.000924512
0.000924511
0.000924511
0.000924511
0.000924512
0.000924513
0.000924515
0.000924518
0.00092452
0.000924523
0.000924527
0.00092453
0.000924533
0.000924534
0.000924535
0.000924537
0.000924538
0.000924539
0.00092454
0.000924542
0.000924544
0.000924546
0.000924547
0.000924549
0.00092455
0.00092455
0.00092455
0.00092455
0.000924551
0.00092164
0.00092164
0.00092164
0.00092164
0.000921641
0.000921641
0.000921641
0.000921641
0.000921641
0.00092164
0.000921639
0.000921637
0.000921636
0.000921634
0.000921631
0.00092163
0.000921629
0.000921625
0.000921621
0.000921616
0.000921612
0.00092161
0.000921605
0.000921599
0.000921592
0.000921586
0.00092158
0.000921574
0.000921569
0.000921563
0.000921561
0.000921559
0.000921557
0.000921556
0.000921556
0.000921557
0.000921559
0.000921562
0.000921565
0.000921568
0.000921572
0.000921576
0.000921579
0.000921582
0.000921583
0.000921585
0.000921588
0.00092159
0.000921592
0.000921593
0.000921596
0.000921598
0.000921601
0.000921602
0.000921604
0.000921605
0.000921606
0.000921606
0.000921607
0.000921607
0.000918813
0.000918813
0.000918814
0.000918814
0.000918814
0.000918814
0.000918814
0.000918814
0.000918814
0.000918813
0.000918812
0.000918811
0.000918809
0.000918807
0.000918804
0.000918802
0.000918801
0.000918797
0.000918791
0.000918786
0.00091878
0.000918777
0.000918771
0.000918764
0.000918756
0.000918748
0.000918741
0.000918734
0.000918727
0.00091872
0.000918717
0.000918714
0.000918712
0.000918711
0.000918711
0.000918712
0.000918714
0.000918717
0.000918721
0.000918725
0.000918729
0.000918734
0.000918738
0.000918741
0.000918743
0.000918746
0.000918749
0.000918752
0.000918754
0.000918757
0.00091876
0.000918763
0.000918765
0.000918768
0.00091877
0.000918771
0.000918772
0.000918772
0.000918773
0.000918773
0.00091609
0.00091609
0.00091609
0.00091609
0.00091609
0.000916091
0.000916091
0.000916091
0.000916091
0.000916091
0.00091609
0.000916088
0.000916086
0.000916084
0.000916081
0.000916079
0.000916077
0.000916072
0.000916066
0.000916059
0.000916052
0.000916045
0.000916041
0.000916033
0.000916023
0.000916014
0.000916005
0.000915996
0.000915988
0.00091598
0.000915976
0.000915972
0.00091597
0.000915968
0.000915968
0.000915969
0.000915971
0.000915975
0.000915979
0.000915983
0.000915989
0.000915994
0.000915998
0.000916001
0.000916004
0.000916009
0.000916013
0.000916016
0.000916019
0.000916023
0.000916027
0.00091603
0.000916033
0.000916036
0.000916038
0.000916039
0.00091604
0.000916041
0.000916042
0.000916042
0.000913463
0.000913463
0.000913463
0.000913463
0.000913464
0.000913464
0.000913465
0.000913465
0.000913465
0.000913465
0.000913464
0.000913463
0.000913461
0.000913458
0.000913455
0.000913453
0.00091345
0.000913446
0.000913439
0.000913431
0.000913423
0.000913414
0.000913408
0.000913399
0.000913388
0.000913377
0.000913367
0.000913356
0.000913346
0.000913337
0.000913331
0.000913327
0.000913323
0.000913321
0.00091332
0.000913321
0.000913324
0.000913327
0.000913332
0.000913338
0.000913343
0.000913349
0.000913352
0.000913357
0.000913362
0.000913368
0.000913373
0.000913376
0.000913381
0.000913385
0.000913389
0.000913393
0.000913397
0.0009134
0.000913402
0.000913404
0.000913405
0.000913406
0.000913407
0.000913407
0.000910927
0.000910927
0.000910927
0.000910927
0.000910928
0.000910929
0.00091093
0.00091093
0.00091093
0.00091093
0.00091093
0.000910928
0.000910927
0.000910924
0.000910922
0.000910919
0.000910916
0.000910911
0.000910904
0.000910895
0.000910885
0.000910876
0.000910868
0.000910858
0.000910845
0.000910833
0.00091082
0.000910808
0.000910797
0.000910785
0.000910778
0.000910772
0.000910767
0.000910764
0.000910763
0.000910764
0.000910766
0.00091077
0.000910775
0.000910781
0.000910787
0.000910793
0.000910797
0.000910803
0.00091081
0.000910816
0.000910821
0.000910826
0.000910832
0.000910837
0.000910842
0.000910846
0.00091085
0.000910853
0.000910856
0.000910859
0.00091086
0.000910861
0.000910862
0.000910862
0.000908475
0.000908475
0.000908476
0.000908476
0.000908477
0.000908478
0.000908479
0.00090848
0.000908481
0.000908481
0.000908481
0.00090848
0.000908479
0.000908477
0.000908474
0.000908471
0.000908468
0.000908463
0.000908456
0.000908447
0.000908436
0.000908425
0.000908414
0.000908404
0.000908391
0.000908377
0.000908363
0.000908349
0.000908336
0.000908323
0.000908314
0.000908305
0.000908299
0.000908294
0.000908292
0.000908292
0.000908294
0.000908297
0.000908302
0.000908308
0.000908314
0.00090832
0.000908326
0.000908334
0.000908342
0.000908349
0.000908355
0.000908361
0.000908367
0.000908373
0.000908379
0.000908383
0.000908388
0.000908392
0.000908395
0.000908397
0.000908399
0.0009084
0.000908401
0.000908402
0.000906104
0.000906104
0.000906105
0.000906106
0.000906107
0.000906108
0.00090611
0.000906111
0.000906112
0.000906113
0.000906114
0.000906113
0.000906113
0.000906111
0.000906109
0.000906106
0.000906103
0.000906099
0.000906092
0.000906083
0.000906072
0.00090606
0.000906047
0.000906037
0.000906024
0.000906009
0.000905994
0.000905978
0.000905963
0.000905947
0.000905935
0.000905925
0.000905915
0.000905908
0.000905904
0.000905902
0.000905903
0.000905905
0.000905909
0.000905914
0.00090592
0.000905927
0.000905935
0.000905944
0.000905953
0.00090596
0.000905967
0.000905975
0.000905982
0.000905989
0.000905995
0.000906
0.000906005
0.000906009
0.000906013
0.000906016
0.000906018
0.000906019
0.00090602
0.000906021
0.000903808
0.000903808
0.000903809
0.00090381
0.000903812
0.000903813
0.000903815
0.000903818
0.000903819
0.000903821
0.000903822
0.000903823
0.000903823
0.000903823
0.000903821
0.000903819
0.000903817
0.000903814
0.000903808
0.000903799
0.000903789
0.000903778
0.000903765
0.000903754
0.000903741
0.000903727
0.000903712
0.000903696
0.000903679
0.000903661
0.000903645
0.00090363
0.000903616
0.000903605
0.000903598
0.000903593
0.00090359
0.000903589
0.000903592
0.000903597
0.000903603
0.000903611
0.00090362
0.00090363
0.000903639
0.000903647
0.000903655
0.000903664
0.000903672
0.00090368
0.000903686
0.000903692
0.000903698
0.000903702
0.000903706
0.000903709
0.000903711
0.000903713
0.000903714
0.000903715
0.000901583
0.000901583
0.000901584
0.000901586
0.000901588
0.00090159
0.000901593
0.000901596
0.000901599
0.000901601
0.000901604
0.000901605
0.000901607
0.000901608
0.000901608
0.000901607
0.000901606
0.000901605
0.000901601
0.000901595
0.000901587
0.000901578
0.000901567
0.000901556
0.000901555
0.000901545
0.000901533
0.000901518
0.0009015
0.000901476
0.000901454
0.000901431
0.000901409
0.000901391
0.000901377
0.000901368
0.000901354
0.000901349
0.000901347
0.000901351
0.000901358
0.000901367
0.000901377
0.000901387
0.000901396
0.000901405
0.000901415
0.000901424
0.000901433
0.000901441
0.000901448
0.000901455
0.000901461
0.000901466
0.00090147
0.000901473
0.000901476
0.000901477
0.000901479
0.000901479
0.000899425
0.000899425
0.000899427
0.000899428
0.000899431
0.000899434
0.000899438
0.000899441
0.000899445
0.000899449
0.000899453
0.000899457
0.00089946
0.000899463
0.000899465
0.000899467
0.000899468
0.000899469
0.00089947
0.000899469
0.000899466
0.000899463
0.000899458
0.00089947
0.000900464
0.000900464
0.000900456
0.000900444
0.000900426
0.0009004
0.000900373
0.000900344
0.000900315
0.000900289
0.00090027
0.000900255
0.000899213
0.00089918
0.000899175
0.000899176
0.000899182
0.000899191
0.000899201
0.00089921
0.00089922
0.000899231
0.000899241
0.000899252
0.000899261
0.00089927
0.000899278
0.000899285
0.000899291
0.000899296
0.000899301
0.000899304
0.000899307
0.000899309
0.00089931
0.000899311
0.00089733
0.000897331
0.000897332
0.000897335
0.000897338
0.000897342
0.000897346
0.000897351
0.000897357
0.000897362
0.000897368
0.000897374
0.000897379
0.000897385
0.000897391
0.000897396
0.000897401
0.000897407
0.000897413
0.000897421
0.000897429
0.000897439
0.000897455
0.00089843
0.000898378
0.000898397
0.000898409
0.000898412
0.000898398
0.000898367
0.000898325
0.000898274
0.000898222
0.000898175
0.000898138
0.0008981
0.000898139
0.000897099
0.000897073
0.00089707
0.000897074
0.000897081
0.00089709
0.000897099
0.000897109
0.000897121
0.000897132
0.000897143
0.000897153
0.000897162
0.00089717
0.000897178
0.000897184
0.00089719
0.000897195
0.000897199
0.000897201
0.000897204
0.000897205
0.000897206
0.000895295
0.000895296
0.000895298
0.000895301
0.000895305
0.000895309
0.000895315
0.000895322
0.000895329
0.000895336
0.000895344
0.000895353
0.000895362
0.000895371
0.000895381
0.000895391
0.000895403
0.000895416
0.000895433
0.000895454
0.000895481
0.000895512
0.000895556
0.000896449
0.000896445
0.000896941
0.000897
0.00089703
0.000897028
0.000896991
0.000896924
0.000896838
0.000896747
0.000896668
0.000896609
0.000896059
0.000896055
0.000895097
0.000895039
0.000895028
0.000895028
0.000895033
0.00089504
0.000895049
0.00089506
0.000895072
0.000895083
0.000895095
0.000895105
0.000895115
0.000895123
0.000895131
0.000895138
0.000895144
0.000895149
0.000895153
0.000895156
0.000895158
0.00089516
0.000895161
0.000893317
0.000893318
0.00089332
0.000893324
0.000893328
0.000893334
0.000893341
0.00089335
0.000893359
0.000893368
0.000893379
0.000893391
0.000893404
0.000893418
0.000893434
0.000893452
0.000893472
0.000893497
0.000893529
0.000893571
0.000893627
0.000893695
0.000893784
0.000894619
0.000894714
0.000895151
0.000895361
0.000895464
0.000895501
0.000895458
0.000895335
0.000895156
0.000894961
0.000894789
0.000894662
0.000894179
0.000894051
0.000893181
0.000893073
0.00089305
0.000893043
0.000893044
0.000893049
0.000893058
0.000893069
0.000893081
0.000893093
0.000893104
0.000893115
0.000893125
0.000893134
0.000893142
0.000893149
0.000893155
0.000893161
0.000893165
0.000893168
0.00089317
0.000893172
0.000893173
0.000891392
0.000891393
0.000891396
0.0008914
0.000891406
0.000891413
0.000891422
0.000891432
0.000891443
0.000891456
0.00089147
0.000891486
0.000891504
0.000891524
0.000891547
0.000891575
0.000891608
0.000891649
0.000891703
0.000891776
0.000891878
0.000892005
0.000892176
0.000892999
0.000893227
0.000893653
0.000894164
0.000894421
0.000894585
0.000894586
0.000894382
0.000894011
0.000893575
0.000893183
0.000892887
0.000892516
0.000892133
0.000891352
0.000891175
0.000891132
0.000891117
0.000891112
0.000891116
0.000891124
0.000891134
0.000891146
0.000891157
0.000891169
0.00089118
0.00089119
0.000891199
0.000891208
0.000891215
0.000891221
0.000891227
0.000891231
0.000891234
0.000891237
0.000891238
0.000891239
0.000889518
0.00088952
0.000889523
0.000889528
0.000889535
0.000889543
0.000889554
0.000889566
0.00088958
0.000889595
0.000889613
0.000889634
0.000889658
0.000889685
0.000889718
0.000889758
0.000889808
0.000889872
0.000889958
0.000890077
0.000890247
0.000890468
0.000890792
0.000891668
0.000892098
0.000892688
0.000893789
0.000894496
0.000895123
0.000895375
0.000895008
0.000894098
0.000892993
0.000892025
0.000891334
0.00089112
0.000890308
0.000889605
0.000889342
0.000889272
0.000889246
0.000889237
0.000889237
0.000889243
0.000889253
0.000889263
0.000889275
0.000889286
0.000889297
0.000889307
0.000889317
0.000889325
0.000889333
0.000889339
0.000889345
0.000889349
0.000889352
0.000889355
0.000889356
0.000889358
0.000887692
0.000887694
0.000887698
0.000887704
0.000887712
0.000887722
0.000887734
0.000887749
0.000887765
0.000887785
0.000887807
0.000887833
0.000887864
0.000887901
0.000887945
0.000888001
0.000888072
0.000888166
0.000888295
0.00088848
0.000888748
0.000889125
0.000889717
0.000890744
0.000891537
0.000892613
0.000894991
0.000897202
0.000899724
0.000901318
0.000900511
0.000897605
0.0008943
0.000891755
0.000890153
0.00088999
0.000888591
0.000887925
0.000887572
0.000887471
0.00088743
0.000887414
0.00088741
0.000887414
0.000887422
0.000887432
0.000887443
0.000887454
0.000887464
0.000887475
0.000887484
0.000887492
0.0008875
0.000887506
0.000887512
0.000887516
0.00088752
0.000887522
0.000887524
0.000887525
0.000885913
0.000885915
0.000885919
0.000885926
0.000885935
0.000885947
0.000885961
0.000885978
0.000885998
0.000886021
0.000886048
0.00088608
0.000886119
0.000886166
0.000886225
0.000886299
0.000886397
0.00088653
0.000886716
0.000886991
0.000887397
0.000888025
0.00088906
0.000890375
0.000891887
0.000894123
0.000899393
0.000906793
0.000918424
0.000928645
0.000926146
0.000913077
0.000900822
0.000893503
0.000889755
0.000889087
0.000887013
0.000886288
0.000885853
0.000885721
0.000885664
0.000885641
0.000885632
0.000885633
0.000885639
0.000885648
0.000885658
0.000885669
0.00088568
0.000885689
0.000885699
0.000885707
0.000885714
0.000885721
0.000885726
0.000885731
0.000885734
0.000885736
0.000885738
0.000885739
0.000884176
0.000884179
0.000884184
0.000884191
0.000884202
0.000884215
0.000884231
0.000884251
0.000884274
0.000884301
0.000884334
0.000884373
0.000884421
0.00088448
0.000884554
0.000884651
0.000884781
0.000884961
0.000885221
0.000885612
0.000886203
0.000887217
0.000888925
0.000890722
0.000893612
0.000898273
0.000910097
0.000934167
0.000415841
0.000270581
0.000287859
0.000468039
0.000923658
0.000899934
0.00089083
0.000888351
0.000885595
0.000884666
0.000884171
0.000884017
0.000883942
0.000883913
0.0008839
0.000883899
0.000883903
0.000883911
0.00088392
0.00088393
0.00088394
0.00088395
0.000883959
0.000883967
0.000883974
0.00088398
0.000883986
0.00088399
0.000883993
0.000883996
0.000883997
0.000883999
0.000882481
0.000882484
0.00088249
0.000882498
0.00088251
0.000882525
0.000882543
0.000882565
0.000882592
0.000882624
0.000882662
0.000882709
0.000882766
0.000882838
0.000882931
0.000883053
0.000883221
0.000883457
0.000883805
0.000884342
0.00088517
0.000886733
0.000889362
0.000891896
0.000897175
0.000906058
0.00093074
0.000539979
0.00018956
9.41721e-05
0.000115208
0.000207276
0.000495259
0.000916248
0.000894227
0.000887813
0.000884324
0.00088304
0.000882511
0.000882348
0.000882259
0.000882226
0.000882211
0.000882208
0.000882211
0.000882217
0.000882226
0.000882235
0.000882245
0.000882254
0.000882262
0.00088227
0.000882277
0.000882283
0.000882288
0.000882293
0.000882296
0.000882298
0.0008823
0.000882301
0.000880825
0.000880829
0.000880835
0.000880844
0.000880857
0.000880874
0.000880894
0.00088092
0.00088095
0.000880986
0.000881031
0.000881085
0.000881152
0.000881238
0.000881351
0.000881501
0.00088171
0.000882011
0.000882461
0.000883172
0.000884286
0.00088656
0.000890323
0.000893907
0.000902841
0.000917468
0.000956269
0.000777415
0.000217733
0.000236122
0.000360773
0.000944562
0.000900132
0.00088767
0.000883107
0.000881412
0.000880867
0.000880708
0.00088061
0.000880578
0.000880562
0.000880558
0.00088056
0.000880565
0.000880573
0.000880582
0.00088059
0.000880599
0.000880607
0.000880614
0.000880621
0.000880627
0.000880632
0.000880636
0.000880639
0.000880641
0.000880643
0.000880644
0.000879207
0.000879211
0.000879218
0.000879228
0.000879242
0.00087926
0.000879283
0.000879311
0.000879345
0.000879386
0.000879436
0.000879498
0.000879577
0.000879677
0.00087981
0.00087999
0.000880244
0.000880615
0.000881176
0.000882085
0.000883521
0.000886622
0.000891626
0.000896685
0.000910558
0.000932143
0.000981091
0.000755173
0.000363866
0.000185152
0.000354721
0.000442611
0.000974288
0.000906351
0.000888
0.000881818
0.000879798
0.000879249
0.000879096
0.000878998
0.000878969
0.000878954
0.000878949
0.000878951
0.000878955
0.000878962
0.000878969
0.000878977
0.000878984
0.000878992
0.000878998
0.000879005
0.00087901
0.000879015
0.000879019
0.000879021
0.000879024
0.000879025
0.000879027
0.000877625
0.000877629
0.000877636
0.000877647
0.000877663
0.000877683
0.000877708
0.000877738
0.000877776
0.000877822
0.000877878
0.000877948
0.000878036
0.000878151
0.000878305
0.000878515
0.000878815
0.000879259
0.000879936
0.000881055
0.000882828
0.000886788
0.000892968
0.000900036
0.000919552
0.000950283
0.00101993
0.00101295
0.0199849
0.00712854
0.00403036
0.000747536
0.000635697
0.000999244
0.000910007
0.000888413
0.000880412
0.000878216
0.000877672
0.000877518
0.000877423
0.000877399
0.000877385
0.000877381
0.000877381
0.000877384
0.00087739
0.000877396
0.000877402
0.000877409
0.000877415
0.000877421
0.000877427
0.000877431
0.000877436
0.000877439
0.000877442
0.000877444
0.000877445
0.000877447
0.000876076
0.000876081
0.000876089
0.000876101
0.000876118
0.000876139
0.000876166
0.0008762
0.00087624
0.00087629
0.000876352
0.00087643
0.000876528
0.000876657
0.000876831
0.000877071
0.000877416
0.000877931
0.000878723
0.000880051
0.000882161
0.000886892
0.000894093
0.000903598
0.000928469
0.000968456
0.00109042
0.00119577
0.0366958
0.0209937
0.00951016
0.00163467
0.000899666
0.00102586
0.000912481
0.000888138
0.000879105
0.000876687
0.000876154
0.00087599
0.000875891
0.000875871
0.000875857
0.000875852
0.00087585
0.000875852
0.000875855
0.00087586
0.000875865
0.00087587
0.000875875
0.00087588
0.000875885
0.000875889
0.000875893
0.000875896
0.000875898
0.0008759
0.000875901
0.000875902
0.000874561
0.000874566
0.000874574
0.000874587
0.000874605
0.000874628
0.000874657
0.000874693
0.000874737
0.000874791
0.000874858
0.000874942
0.000875051
0.000875193
0.000875385
0.000875652
0.000876039
0.000876621
0.000877525
0.000879046
0.000881519
0.000886851
0.000894931
0.000906921
0.00093639
0.000981134
0.00117018
0.00108959
0.0434671
0.0391224
0.0208016
0.0055336
0.00120619
0.00107862
0.000921735
0.000887568
0.000878201
0.000875272
0.000874703
0.000874528
0.00087441
0.000874387
0.00087437
0.000874362
0.000874358
0.000874357
0.000874357
0.00087436
0.000874363
0.000874367
0.000874371
0.000874374
0.000874378
0.000874381
0.000874384
0.000874387
0.000874389
0.00087439
0.000874391
0.000874392
0.000873077
0.000873082
0.000873091
0.000873105
0.000873124
0.000873148
0.000873179
0.000873217
0.000873264
0.000873322
0.000873394
0.000873484
0.000873601
0.000873755
0.000873963
0.000874254
0.000874678
0.000875323
0.000876332
0.000878019
0.000880869
0.000886598
0.00089556
0.000909722
0.000944272
0.000991492
0.00123724
0.00100063
0.0139112
0.0748643
0.0665744
0.0110381
0.00202033
0.00121135
0.000952444
0.00089126
0.000878293
0.000874147
0.000873336
0.000873145
0.000872986
0.000872951
0.000872926
0.000872911
0.000872902
0.000872897
0.000872895
0.000872894
0.000872895
0.000872897
0.0008729
0.000872902
0.000872905
0.000872907
0.000872909
0.000872911
0.000872912
0.000872913
0.000872914
0.000872915
0.000871623
0.000871628
0.000871638
0.000871652
0.000871672
0.000871698
0.00087173
0.000871771
0.00087182
0.000871881
0.000871958
0.000872054
0.000872177
0.00087234
0.000872562
0.000872875
0.000873333
0.00087403
0.000875134
0.00087695
0.000880168
0.00088616
0.000896208
0.00091247
0.000952956
0.00100981
0.0012809
0.000972128
0.00345709
0.0467314
0.1
0.060978
0.00683671
0.00184612
0.00101993
0.000906742
0.000879978
0.000873619
0.000872093
0.00087184
0.00087162
0.000871561
0.000871522
0.000871498
0.000871483
0.000871473
0.000871466
0.000871463
0.000871461
0.00087146
0.000871461
0.000871462
0.000871463
0.000871464
0.000871466
0.000871467
0.000871468
0.000871468
0.000871469
0.00087147
0.000870198
0.000870204
0.000870214
0.000870229
0.000870249
0.000870276
0.00087031
0.000870352
0.000870404
0.000870468
0.000870548
0.000870648
0.000870777
0.000870948
0.000871183
0.000871513
0.000871999
0.000872735
0.00087392
0.000875833
0.000879374
0.000885602
0.000897181
0.000915954
0.000962243
0.00103985
0.00129953
0.00108515
0.00140669
0.0145733
0.0844927
0.1
0.0309762
0.00366675
0.00117664
0.000935437
0.00088459
0.000873966
0.00087105
0.000870606
0.000870313
0.000870219
0.000870159
0.000870122
0.000870098
0.000870081
0.00087007
0.000870063
0.000870058
0.000870055
0.000870053
0.000870052
0.000870052
0.000870052
0.000870053
0.000870053
0.000870053
0.000870053
0.000870054
0.000870055
0.000868801
0.000868807
0.000868817
0.000868833
0.000868854
0.000868882
0.000868917
0.000868961
0.000869015
0.000869081
0.000869163
0.000869266
0.000869401
0.000869579
0.000869823