/*--------------------------------*- C++ -*----------------------------------*\
  =========                 |
  \\      /  F ield         | OpenFOAM: The Open Source CFD Toolbox
   \\    /   O peration     | Website:  https://openfoam.org
    \\  /    A nd           | Version:  12
     \\/     M anipulation  |
\*---------------------------------------------------------------------------*/
FoamFile
{
    format      ascii;
    class       volScalarField;
    location    "180";
    object      omega;
}
// * * * * * * * * * * * * * * * * * * * * * * * * * * * * * * * * * * * * * //

dimensions      [0 0 -1 0 0 0 0];

internalField   nonuniform List<scalar> 
16227
(
9.34702
9.34704
9.34704
9.34707
9.34706
9.3471
9.34709
9.34708
9.34707
9.34709
9.34713
9.34715
9.3472
9.3472
9.3472
9.3472
9.3472
9.3472
9.3472
9.3472
9.3472
9.3472
9.3472
9.3472
9.3472
9.3472
9.3472
9.34722
9.34722
9.3472
9.34721
9.3472
9.3472
9.3472
9.34721
9.3472
9.3472
9.3472
9.3472
9.3472
9.3472
9.3472
9.3472
9.3472
9.3472
9.3472
9.3472
9.34719
9.34717
9.34717
9.34717
9.34716
9.3471
9.3471
9.34706
9.34705
9.34707
9.34705
9.34703
9.34702
8.71805
8.71807
8.71807
8.7181
8.7181
8.71814
8.71813
8.7181
8.71811
8.71812
8.71817
8.71819
8.71833
8.71839
8.7184
8.7184
8.7184
8.7184
8.7184
8.7184
8.71841
8.71842
8.71842
8.71842
8.71842
8.71843
8.71842
8.71842
8.7184
8.71835
8.71841
8.71842
8.71843
8.71843
8.71842
8.71842
8.7184
8.7184
8.7184
8.71841
8.71841
8.71841
8.71841
8.71839
8.71839
8.71838
8.71838
8.71838
8.71839
8.71837
8.71834
8.71829
8.71818
8.71817
8.71813
8.71811
8.71815
8.71807
8.71808
8.71806
8.16619
8.16621
8.16621
8.16623
8.16622
8.16631
8.16626
8.16625
8.16626
8.16627
8.16631
8.16633
8.16657
8.16663
8.16664
8.16665
8.16664
8.16664
8.16666
8.16661
8.16664
8.16665
8.16665
8.16665
8.16665
8.16665
8.16665
8.16665
8.16664
8.16658
8.16663
8.16665
8.16665
8.16666
8.16666
8.16666
8.16667
8.16666
8.16665
8.16665
8.16666
8.16666
8.16665
8.16664
8.16665
8.16665
8.16664
8.16664
8.16663
8.16661
8.16657
8.16639
8.16631
8.1663
8.16628
8.16627
8.16631
8.16621
8.16623
8.1662
7.67831
7.67833
7.67833
7.67834
7.67835
7.67841
7.67841
7.67838
7.67838
7.67838
7.67842
7.67848
7.67873
7.6788
7.67882
7.67883
7.67883
7.67885
7.67878
7.67866
7.67877
7.6788
7.6788
7.6788
7.67881
7.6788
7.6788
7.67879
7.67877
7.67869
7.67877
7.67879
7.67879
7.67879
7.6788
7.67881
7.67882
7.67882
7.67883
7.67883
7.67883
7.67883
7.67883
7.67884
7.67883
7.67883
7.67884
7.67883
7.67884
7.67881
7.67869
7.67851
7.67841
7.67843
7.67843
7.67845
7.67842
7.67835
7.67835
7.67833
7.24408
7.24409
7.2441
7.24412
7.24412
7.24417
7.2442
7.24414
7.24415
7.24415
7.24418
7.24424
7.24447
7.2446
7.24461
7.24461
7.24461
7.24458
7.24437
7.2443
7.24448
7.24455
7.24454
7.24453
7.24451
7.2445
7.2445
7.2445
7.24447
7.24438
7.24447
7.2445
7.24451
7.24451
7.24451
7.24453
7.24455
7.24456
7.24457
7.24458
7.2446
7.24462
7.24461
7.24462
7.24462
7.24464
7.24464
7.24464
7.24464
7.24456
7.24433
7.24422
7.24415
7.24418
7.2442
7.24425
7.24419
7.24411
7.24412
7.2441
6.85525
6.85527
6.85526
6.85528
6.85528
6.85532
6.85536
6.85531
6.85529
6.85528
6.85529
6.85532
6.85543
6.8557
6.85576
6.85577
6.85576
6.85565
6.85541
6.85537
6.85557
6.85562
6.8556
6.85558
6.85556
6.85555
6.85554
6.85552
6.85549
6.85539
6.85548
6.85551
6.85553
6.85554
6.85556
6.85558
6.85561
6.85563
6.85565
6.85567
6.85569
6.85571
6.85573
6.85576
6.85577
6.85578
6.85579
6.8558
6.8558
6.85567
6.85544
6.85533
6.8553
6.85535
6.85539
6.85538
6.85533
6.85527
6.85527
6.85526
6.50516
6.50518
6.50517
6.50519
6.50518
6.50522
6.50526
6.50524
6.50519
6.50518
6.50516
6.50515
6.50525
6.5055
6.50562
6.50563
6.50559
6.50529
6.50516
6.50515
6.50535
6.50538
6.50535
6.50532
6.50529
6.50526
6.50523
6.50521
6.50518
6.50507
6.50516
6.5052
6.50521
6.50524
6.50527
6.5053
6.50533
6.50537
6.50541
6.50545
6.50548
6.50552
6.50555
6.50558
6.50562
6.50564
6.50565
6.50567
6.50561
6.50536
6.50524
6.50517
6.50517
6.50525
6.50526
6.50526
6.50521
6.50516
6.50517
6.50515
6.1884
6.1884
6.1884
6.18842
6.1884
6.18843
6.18847
6.18846
6.18841
6.18836
6.18834
6.18829
6.18832
6.18844
6.18871
6.18878
6.1887
6.18835
6.18823
6.1882
6.1884
6.18842
6.18836
6.18831
6.18826
6.18822
6.18818
6.18815
6.18809
6.18798
6.18808
6.18812
6.18815
6.18818
6.18822
6.18826
6.18831
6.18836
6.18842
6.18848
6.18854
6.18858
6.18864
6.18869
6.18873
6.18876
6.1888
6.18881
6.1887
6.18846
6.18836
6.18833
6.18838
6.18843
6.18843
6.18843
6.1884
6.18835
6.18836
6.18834
5.90048
5.90048
5.90049
5.90048
5.90048
5.90049
5.90052
5.9005
5.90048
5.90042
5.90036
5.90029
5.90029
5.90037
5.90068
5.90075
5.90058
5.90024
5.90012
5.90007
5.90026
5.90025
5.90017
5.90009
5.90002
5.89996
5.8999
5.89986
5.8998
5.89967
5.89977
5.89981
5.89984
5.89989
5.89994
5.9
5.90007
5.90015
5.90022
5.90029
5.90037
5.90046
5.90052
5.90059
5.90065
5.90071
5.90075
5.90071
5.90047
5.90036
5.9003
5.90035
5.90038
5.90043
5.90044
5.90045
5.90042
5.90038
5.90038
5.90038
5.6377
5.6377
5.63769
5.6377
5.63768
5.63769
5.63772
5.63768
5.63765
5.63762
5.63754
5.63744
5.63743
5.6375
5.63774
5.6378
5.63746
5.63723
5.63711
5.63706
5.63721
5.63717
5.63707
5.63696
5.63686
5.63678
5.6367
5.63663
5.63656
5.63643
5.63652
5.63656
5.6366
5.63666
5.63673
5.6368
5.6369
5.63699
5.6371
5.6372
5.6373
5.6374
5.63751
5.6376
5.63768
5.63776
5.63781
5.63774
5.6375
5.63742
5.63743
5.63746
5.6375
5.63755
5.63757
5.63759
5.63756
5.63754
5.63754
5.63754
5.39695
5.39695
5.39695
5.39694
5.39693
5.39693
5.39694
5.3969
5.39686
5.39681
5.39675
5.39662
5.39654
5.39655
5.39662
5.39679
5.39646
5.39626
5.39613
5.39604
5.3961
5.39608
5.39595
5.39581
5.39568
5.39556
5.39546
5.39537
5.39529
5.39514
5.39523
5.39528
5.39532
5.39539
5.39547
5.39558
5.3957
5.39582
5.39595
5.39609
5.39622
5.39635
5.39648
5.39659
5.3967
5.39678
5.39678
5.39668
5.39655
5.39651
5.39654
5.39659
5.39664
5.3967
5.39673
5.39675
5.39673
5.3967
5.39672
5.39671
5.17561
5.17561
5.1756
5.1756
5.17558
5.17558
5.17557
5.17554
5.17548
5.17542
5.17534
5.17523
5.1751
5.17505
5.17507
5.17518
5.17491
5.17469
5.17451
5.17437
5.17427
5.17432
5.17419
5.17402
5.17385
5.1737
5.17356
5.17346
5.17334
5.17319
5.17328
5.17333
5.17338
5.17346
5.17357
5.17369
5.17384
5.174
5.17415
5.17432
5.17449
5.17465
5.17481
5.17496
5.17508
5.17515
5.17507
5.17506
5.17502
5.175
5.17505
5.17512
5.17518
5.17524
5.17528
5.17531
5.1753
5.17527
5.17529
5.17529
4.97147
4.97147
4.97145
4.97145
4.97143
4.97142
4.9714
4.97136
4.97129
4.97122
4.97114
4.971
4.97087
4.97073
4.97064
4.97059
4.97048
4.9703
4.97008
4.96989
4.96971
4.96975
4.96959
4.96937
4.96916
4.96897
4.9688
4.96866
4.96853
4.96836
4.96844
4.96848
4.96855
4.96865
4.96878
4.96894
4.96911
4.9693
4.96951
4.96971
4.96992
4.97012
4.97031
4.97049
4.97062
4.97069
4.97063
4.97069
4.97066
4.97067
4.97074
4.97082
4.97089
4.97096
4.97101
4.97104
4.97104
4.97103
4.97104
4.97104
4.78261
4.78262
4.7826
4.78259
4.78256
4.78255
4.78252
4.78247
4.7824
4.78232
4.78221
4.78207
4.78192
4.78177
4.78159
4.78149
4.7814
4.78119
4.78094
4.7807
4.78046
4.78045
4.78024
4.77997
4.77971
4.77947
4.77927
4.77909
4.77893
4.77874
4.77881
4.77886
4.77894
4.77906
4.77921
4.7794
4.77962
4.77985
4.7801
4.78035
4.78059
4.78083
4.78106
4.78126
4.78136
4.78141
4.78148
4.78156
4.78157
4.78162
4.7817
4.78179
4.78188
4.78195
4.78201
4.78205
4.78206
4.78206
4.78208
4.78207
4.60742
4.60742
4.60741
4.60739
4.60736
4.60734
4.60731
4.60725
4.60718
4.60708
4.60696
4.60681
4.60664
4.60645
4.60627
4.60612
4.606
4.60575
4.60545
4.60515
4.60486
4.60479
4.60452
4.60419
4.60387
4.60359
4.60333
4.60311
4.60292
4.60271
4.60277
4.60282
4.60291
4.60305
4.60324
4.60347
4.60373
4.60401
4.6043
4.6046
4.60489
4.60518
4.60544
4.60563
4.60568
4.60582
4.60595
4.60607
4.60613
4.6062
4.60632
4.60642
4.60652
4.60661
4.60667
4.60672
4.60673
4.60674
4.60675
4.60675
4.44448
4.44448
4.44446
4.44445
4.44441
4.44439
4.44436
4.44429
4.44421
4.4441
4.44396
4.4438
4.44362
4.44341
4.44319
4.44302
4.44284
4.44256
4.4422
4.44184
4.4415
4.4413
4.44101
4.44063
4.44024
4.43989
4.43958
4.43931
4.43908
4.43885
4.4389
4.43895
4.43906
4.43922
4.43945
4.43972
4.44003
4.44037
4.44071
4.44106
4.4414
4.44174
4.44204
4.44223
4.44233
4.4425
4.44268
4.44279
4.44289
4.44302
4.44316
4.44329
4.44339
4.4435
4.44357
4.44362
4.44364
4.44365
4.44368
4.44368
4.29257
4.29256
4.29255
4.29253
4.2925
4.29247
4.29243
4.29236
4.29227
4.29216
4.29202
4.29183
4.29163
4.2914
4.29116
4.29094
4.29073
4.29039
4.28998
4.28955
4.28912
4.28873
4.28847
4.28805
4.2876
4.28717
4.28679
4.28647
4.2862
4.28594
4.28597
4.28603
4.28615
4.28635
4.28661
4.28694
4.28731
4.2877
4.28811
4.28851
4.28892
4.28929
4.28956
4.28976
4.28998
4.29022
4.29044
4.29057
4.2907
4.29088
4.29103
4.29117
4.29129
4.29141
4.29149
4.29155
4.29158
4.29159
4.29162
4.29162
4.15062
4.15062
4.1506
4.15058
4.15055
4.15052
4.15048
4.1504
4.15031
4.15019
4.15003
4.14984
4.14962
4.14937
4.14909
4.14884
4.14859
4.14821
4.14774
4.14723
4.14672
4.1462
4.14589
4.14541
4.14487
4.14436
4.14391
4.14352
4.14319
4.1429
4.14292
4.14298
4.14312
4.14335
4.14367
4.14406
4.14449
4.14495
4.14543
4.1459
4.14636
4.14675
4.14697
4.14728
4.14759
4.1479
4.14814
4.14831
4.14849
4.14868
4.14886
4.14901
4.14914
4.14927
4.14936
4.14943
4.14946
4.14949
4.14951
4.14952
4.0177
4.0177
4.01768
4.01766
4.01763
4.0176
4.01756
4.01748
4.01738
4.01725
4.0171
4.01689
4.01665
4.01638
4.01608
4.01578
4.01548
4.01505
4.01454
4.01395
4.01335
4.01276
4.0123
4.01176
4.01113
4.01052
4.00998
4.00952
4.00913
4.0088
4.0088
4.00886
4.00903
4.00931
4.00969
4.01015
4.01065
4.01119
4.01174
4.01227
4.01279
4.01321
4.0135
4.01388
4.01425
4.01458
4.01483
4.01505
4.01528
4.01551
4.0157
4.01587
4.01602
4.01616
4.01625
4.01633
4.01637
4.0164
4.01643
4.01643
3.89299
3.89298
3.89297
3.89295
3.89292
3.89289
3.89285
3.89277
3.89267
3.89254
3.89238
3.89216
3.89191
3.89163
3.8913
3.89095
3.8906
3.89013
3.88955
3.8889
3.8882
3.88749
3.8868
3.88625
3.88555
3.88484
3.8842
3.88364
3.88319
3.88281
3.88279
3.88286
3.88306
3.88339
3.88384
3.88438
3.88497
3.8856
3.8862
3.88678
3.88732
3.88778
3.88823
3.88868
3.88912
3.88947
3.88975
3.89001
3.89029
3.89054
3.89075
3.89094
3.8911
3.89124
3.89135
3.89143
3.89148
3.89151
3.89154
3.89155
3.77576
3.77575
3.77574
3.77572
3.77569
3.77567
3.77563
3.77555
3.77546
3.77532
3.77516
3.77494
3.77468
3.77437
3.77401
3.7736
3.77318
3.7727
3.77208
3.77136
3.77057
3.76973
3.7689
3.76825
3.76743
3.7666
3.76584
3.76518
3.76463
3.7642
3.76415
3.76423
3.76447
3.76486
3.7654
3.76604
3.76673
3.76743
3.76811
3.76877
3.76932
3.76989
3.77045
3.77098
3.77145
3.77181
3.77214
3.77247
3.77278
3.77305
3.77328
3.77348
3.77366
3.7738
3.77392
3.77401
3.77406
3.7741
3.77414
3.77414
3.66536
3.66535
3.66535
3.66533
3.66531
3.66529
3.66525
3.66518
3.66509
3.66496
3.66479
3.66458
3.66431
3.66399
3.66361
3.66316
3.6627
3.66218
3.6615
3.66069
3.6598
3.65886
3.65789
3.65707
3.65613
3.65516
3.65425
3.65347
3.65282
3.65232
3.65223
3.65232
3.65261
3.65309
3.65373
3.65449
3.65527
3.65606
3.65685
3.65761
3.65825
3.6589
3.65955
3.66013
3.66063
3.66103
3.6614
3.66177
3.66211
3.66239
3.66265
3.66286
3.66304
3.6632
3.66332
3.66342
3.66348
3.66352
3.66356
3.66357
3.56122
3.56122
3.56122
3.56121
3.56119
3.56117
3.56114
3.56108
3.561
3.56088
3.56072
3.5605
3.56024
3.55992
3.55952
3.55905
3.55854
3.55796
3.55723
3.55635
3.55536
3.55428
3.55318
3.55211
3.55118
3.55004
3.54897
3.54803
3.54726
3.54666
3.54653
3.54663
3.54698
3.54755
3.54832
3.54921
3.55003
3.55093
3.55178
3.55263
3.55344
3.55421
3.55492
3.55553
3.55604
3.5565
3.55694
3.55735
3.55771
3.55801
3.55828
3.55851
3.5587
3.55887
3.55899
3.55909
3.55916
3.55921
3.55924
3.55925
3.46284
3.46284
3.46284
3.46283
3.46282
3.46281
3.46279
3.46274
3.46267
3.46257
3.46242
3.46221
3.46196
3.46164
3.46124
3.46074
3.46017
3.45952
3.45877
3.45784
3.45676
3.45555
3.4543
3.45364
3.50007
3.49889
3.49771
3.49667
3.49581
3.49513
3.49496
3.49507
3.49544
3.49608
3.49692
3.49788
3.45093
3.45156
3.45254
3.45352
3.45445
3.4553
3.45605
3.45668
3.45724
3.45777
3.45826
3.45869
3.45907
3.45939
3.45967
3.45991
3.46011
3.46028
3.46042
3.46052
3.4606
3.46064
3.46068
3.46069
3.36975
3.36975
3.36975
3.36976
3.36975
3.36976
3.36975
3.36971
3.36966
3.36957
3.36944
3.36925
3.36901
3.3687
3.3683
3.3678
3.36719
3.36649
3.36568
3.36473
3.36357
3.36226
3.36145
3.40544
3.40229
3.40106
3.39966
3.39838
3.3973
3.39645
3.39618
3.39625
3.39668
3.39743
3.39844
3.39949
3.40245
3.35794
3.35872
3.3598
3.36081
3.36172
3.36252
3.36318
3.36379
3.36437
3.36489
3.36534
3.36574
3.36608
3.36637
3.36661
3.36682
3.367
3.36714
3.36725
3.36732
3.36738
3.36741
3.36742
3.28154
3.28154
3.28155
3.28156
3.28157
3.28159
3.28159
3.28158
3.28154
3.28147
3.28137
3.2812
3.28098
3.2807
3.28032
3.27983
3.27922
3.27848
3.27764
3.27665
3.27543
3.27405
3.2736
3.31324
3.31018
3.3311
3.32961
3.32813
3.32685
3.3258
3.32541
3.32542
3.32587
3.3267
3.32784
3.30666
3.30944
3.26927
3.26987
3.27103
3.27211
3.27305
3.27387
3.2746
3.27527
3.27589
3.27643
3.2769
3.27731
3.27766
3.27796
3.27821
3.27843
3.27861
3.27876
3.27886
3.27894
3.27899
3.27903
3.27905
3.19784
3.19784
3.19786
3.19788
3.1979
3.19793
3.19796
3.19796
3.19795
3.19791
3.19783
3.1977
3.19752
3.19726
3.19691
3.19645
3.19586
3.19513
3.19425
3.19322
3.192
3.19063
3.19056
3.22623
3.22338
3.24204
3.24067
3.23887
3.23722
3.23588
3.23517
3.23498
3.23538
3.23627
3.23745
3.2191
3.22122
3.18529
3.18564
3.18685
3.18796
3.18892
3.18979
3.19059
3.19131
3.19195
3.19251
3.193
3.19341
3.19377
3.19408
3.19434
3.19456
3.19474
3.19489
3.195
3.19508
3.19513
3.19517
3.19518
3.11832
3.11832
3.11835
3.11838
3.11841
3.11846
3.11851
3.11854
3.11855
3.11854
3.1185
3.11841
3.11827
3.11806
3.11776
3.11735
3.11681
3.11612
3.11525
3.11421
3.11301
3.11173
3.11214
3.14436
3.14164
3.15829
3.15724
3.15514
3.15315
3.15147
3.15039
3.14985
3.14998
3.1507
3.1519
3.13625
3.13763
3.10566
3.1057
3.10691
3.10804
3.10905
3.10998
3.11083
3.11157
3.11223
3.1128
3.11329
3.11372
3.11408
3.11439
3.11466
3.11487
3.11506
3.11521
3.11532
3.1154
3.11545
3.11549
3.11551
3.04266
3.04267
3.04271
3.04275
3.0428
3.04286
3.04293
3.04299
3.04304
3.04307
3.04307
3.04303
3.04295
3.04279
3.04256
3.04222
3.04176
3.04115
3.04036
3.03939
3.03826
3.03718
3.03822
3.0675
3.06509
3.08038
3.07981
3.078
3.07623
3.07451
3.0728
3.07124
3.07027
3.07013
3.07093
3.05817
3.05843
3.03004
3.02974
3.0309
3.03209
3.03316
3.03414
3.035
3.03576
3.03642
3.037
3.0375
3.03792
3.03829
3.0386
3.03886
3.03908
3.03927
3.03942
3.03953
3.03961
3.03966
3.0397
3.03972
2.9706
2.97062
2.97066
2.97071
2.97078
2.97087
2.97096
2.97105
2.97114
2.97121
2.97126
2.97128
2.97126
2.97118
2.97103
2.97079
2.97044
2.96995
2.96931
2.96852
2.9676
2.96688
2.96879
2.9957
2.99407
3.00889
3.01046
3.01086
3.01236
3.0128
3.00971
3.00389
2.99843
2.99544
2.99461
2.98455
2.98337
2.95815
2.95757
2.95869
2.95989
2.96098
2.96196
2.96282
2.96359
2.96425
2.96483
2.96533
2.96576
2.96612
2.96643
2.96669
2.96691
2.96709
2.96724
2.96735
2.96743
2.96748
2.96752
2.96754
2.90189
2.90191
2.90196
2.90203
2.90211
2.90222
2.90234
2.90246
2.90259
2.90271
2.90282
2.9029
2.90295
2.90296
2.90292
2.9028
2.90259
2.90228
2.90186
2.90134
2.9008
2.90077
2.90393
2.92901
2.92925
2.94565
2.95269
2.96374
2.98508
3.00476
2.99707
2.96773
2.94229
2.92895
2.92367
2.91509
2.91231
2.88971
2.88895
2.88999
2.89115
2.89223
2.8932
2.89406
2.89481
2.89547
2.89605
2.89654
2.89697
2.89733
2.89763
2.89789
2.8981
2.89828
2.89843
2.89854
2.89861
2.89866
2.8987
2.89872
2.83629
2.83632
2.83637
2.83646
2.83656
2.83669
2.83684
2.837
2.83716
2.83734
2.8375
2.83765
2.83779
2.83791
2.83798
2.83801
2.83798
2.83789
2.83776
2.83765
2.83767
2.83875
2.84379
2.86775
2.87144
2.89249
2.91337
2.96603
3.12087
3.3511
3.30419
3.06963
2.92886
2.87729
2.86011
2.84932
2.84509
2.82455
2.82361
2.82453
2.82563
2.82668
2.82762
2.82847
2.82921
2.82986
2.83042
2.83091
2.83133
2.83168
2.83198
2.83223
2.83244
2.83261
2.83275
2.83286
2.83293
2.83298
2.83302
2.83304
2.7736
2.77364
2.7737
2.77379
2.77391
2.77407
2.77425
2.77444
2.77465
2.77488
2.77511
2.77533
2.77556
2.77579
2.776
2.77619
2.77637
2.77656
2.7768
2.77719
2.77797
2.78062
2.78817
2.81206
2.82174
2.85101
2.90104
3.10415
4.15248
8.77416
7.53156
4.10476
3.05863
2.85364
2.80628
2.78754
2.78169
2.76229
2.76124
2.76205
2.76307
2.76408
2.765
2.76582
2.76655
2.76719
2.76774
2.76822
2.76862
2.76897
2.76926
2.7695
2.7697
2.76987
2.77001
2.77011
2.77018
2.77023
2.77026
2.77028
2.71363
2.71367
2.71374
2.71385
2.71399
2.71416
2.71437
2.7146
2.71486
2.71513
2.71543
2.71573
2.71606
2.7164
2.71675
2.71713
2.71755
2.71805
2.71871
2.71973
2.72143
2.72607
2.73664
2.76157
2.78017
2.82109
2.91599
3.5122
13.3734
11.594
3.53838
2.8675
2.76224
2.72983
2.72146
2.70267
2.70157
2.70229
2.70323
2.70422
2.70511
2.70591
2.70662
2.70725
2.70779
2.70825
2.70865
2.70898
2.70927
2.7095
2.7097
2.70986
2.70999
2.71009
2.71016
2.71021
2.71025
2.71027
2.6562
2.65624
2.65632
2.65644
2.6566
2.6568
2.65703
2.6573
2.6576
2.65793
2.65828
2.65867
2.65909
2.65955
2.66005
2.66062
2.6613
2.66214
2.66326
2.66498
2.6677
2.67458
2.6884
2.71565
2.74595
2.80134
2.96648
4.53155
17.5972
216.706
77.7654
4.00559
2.89402
2.72177
2.67601
2.66383
2.64557
2.64448
2.64513
2.64602
2.64698
2.64785
2.64863
2.64932
2.64993
2.65045
2.6509
2.65128
2.6516
2.65187
2.65209
2.65228
2.65243
2.65256
2.65265
2.65272
2.65276
2.6528
2.65282
2.60115
2.60119
2.60128
2.60141
2.60159
2.60181
2.60207
2.60237
2.60271
2.60309
2.60351
2.60397
2.60449
2.60506
2.60572
2.60647
2.6074
2.60858
2.61018
2.61262
2.61639
2.62553
2.64243
2.67354
2.71684
2.79158
3.10392
6.04419
8.53378
30.4481
51.7135
34.9749
4.11848
2.898
2.6773
2.6244
2.6082
2.59072
2.58976
2.59036
2.59124
2.59218
2.59303
2.5938
2.59447
2.59505
2.59555
2.59597
2.59634
2.59664
2.5969
2.59711
2.59728
2.59742
2.59754
2.59762
2.59768
2.59772
2.59775
2.59777
2.54833
2.54838
2.54847
2.54862
2.54881
2.54905
2.54934
2.54967
2.55004
2.55047
2.55095
2.55148
2.55209
2.55277
2.55356
2.5545
2.55565
2.55714
2.55919
2.56231
2.56709
2.57818
2.59767
2.63382
2.6889
2.78305
3.25508
6.44846
5.16118
18.5138
29.0184
20.2973
4.25347
2.89956
2.63118
2.57278
2.55443
2.53796
2.53724
2.53785
2.53872
2.53966
2.5405
2.54124
2.54189
2.54245
2.54292
2.54333
2.54367
2.54396
2.54419
2.54439
2.54454
2.54468
2.54478
2.54486
2.54491
2.54494
2.54497
2.54499
2.49761
2.49766
2.49776
2.49792
2.49812
2.49838
2.49869
2.49905
2.49946
2.49993
2.50046
2.50106
2.50174
2.50252
2.50343
2.50451
2.50585
2.5076
2.51005
2.51378
2.51961
2.53217
2.5537
2.59453
2.65937
2.76185
3.36004
6.2839
2.46094
6.62673
17.2605
17.8172
4.37328
2.95255
2.60039
2.52193
2.50353
2.48732
2.48682
2.4875
2.48836
2.4893
2.49012
2.49084
2.49146
2.49199
2.49244
2.49282
2.49314
2.4934
2.49362
2.49379
2.49394
2.49405
2.49415
2.49421
2.49426
2.49429
2.49431
2.49433
2.44886
2.44891
2.44902
2.44918
2.4494
2.44968
2.45001
2.45039
2.45084
2.45134
2.45192
2.45257
2.45331
2.45416
2.45515
2.45632
2.45781
2.45982
2.46264
2.46687
2.47369
2.4871
2.51036
2.5548
2.62938
2.73425
3.40231
6.17975
3.62754
2.12495
3.62958
13.7546
6.03025
3.17102
2.6133
2.4823
2.45638
2.43925
2.43849
2.43924
2.44005
2.44096
2.44177
2.44246
2.44306
2.44356
2.44397
2.44432
2.44461
2.44485
2.44505
2.4452
2.44533
2.44543
2.44551
2.44557
2.44561
2.44563
2.44565
2.44567
2.40196
2.40202
2.40214
2.40231
2.40254
2.40282
2.40317
2.40358
2.40405
2.40459
2.4052
2.40589
2.40666
2.40753
2.40858
2.40988
2.41154
2.41374
2.41683
2.42139
2.429
2.44282
2.46789
2.51501
2.60031
2.72103
3.3576
6.12314
6.66003
1.97614
1.70559
3.38263
8.62692
4.13609
2.69072
2.46947
2.41495
2.39423
2.39224
2.39294
2.39365
2.39452
2.3953
2.39599
2.39656
2.39702
2.39741
2.39772
2.39798
2.3982
2.39837
2.3985
2.39861
2.3987
2.39876
2.39881
2.39884
2.39886
2.39887
2.39889
2.35682
2.35689
2.357
2.35718
2.35741
2.35772
2.35808
2.3585
2.35899
2.35955
2.36018
2.36089
2.36168
2.3626
2.36373
2.36512
2.36687
2.36919
2.37245
2.37718
2.38534
2.39932
2.42676
2.47696
2.57139
2.72743
3.2566
5.41861
8.16932
3.27059
1.28868
1.73821
4.27306
5.85333
2.86678
2.48423
2.38163
2.3531
2.34826
2.34858
2.34918
2.35
2.35069
2.35131
2.35184
2.35228
2.35263
2.35291
2.35314
2.35332
2.35347
2.35358
2.35367
2.35374
2.35379
2.35383
2.35385
2.35386
2.35387
2.35388
2.31333
2.3134
2.31352
2.3137
2.31394
2.31425
2.31463
2.31506
2.31556
2.31613
2.31675
2.31746
2.3183
2.31928
2.32046
2.32189
2.32368
2.32604
2.32938
2.33415
2.34255
2.35667
2.38751
2.44226
2.54212
2.75414
3.16624
4.44957
7.08059
5.25062
2.61169
1.31665
2.42049
6.14225
3.18173
2.50617
2.35732
2.31578
2.30663
2.30616
2.30649
2.30721
2.30783
2.30835
2.3088
2.30919
2.30953
2.30978
2.30998
2.31013
2.31025
2.31034
2.31041
2.31046
2.3105
2.31052
2.31053
2.31054
2.31054
2.31055
2.2714
2.27147
2.2716
2.27178
2.27203
2.27234
2.27272
2.27317
2.27367
2.27422
2.27486
2.2756
2.27647
2.27748
2.27866
2.2801
2.2819
2.28424
2.28757
2.29227
2.30062
2.31492
2.35012
2.41247
2.51456
2.80924
3.26109
4.14839
5.67609
6.29223
4.36968
2.10436
2.02791
6.0257
3.5703
2.51519
2.33881
2.28165
2.26714
2.2655
2.26554
2.26604
2.26658
2.26704
2.26741
2.26772
2.268
2.26823
2.2684
2.26853
2.26862
2.26868
2.26873
2.26876
2.26878
2.2688
2.2688
2.2688
2.2688
2.26881
2.23095
2.23102
2.23115
2.23134
2.23159
2.23191
2.23229
2.23272
2.23322
2.23378
2.23444
2.2352
2.23608
2.23709
2.23827
2.23969
2.24146
2.24375
2.24698
2.25154
2.25968
2.27403
2.31414
2.38743
2.49438
2.88729
3.59292
4.42136
5.33375
6.2252
4.92545
2.12301
2.4454
6.79259
3.99166
2.50499
2.32101
2.24973
2.22954
2.22639
2.22617
2.22647
2.22683
2.22721
2.22752
2.22777
2.22799
2.22817
2.22832
2.22842
2.22848
2.22852
2.22855
2.22856
2.22857
2.22857
2.22856
2.22855
2.22855
2.22856
2.19189
2.19197
2.1921
2.19229
2.19254
2.19285
2.19322
2.19365
2.19415
2.19474
2.19541
2.19617
2.19704
2.19804
2.19921
2.2006
2.20232
2.20453
2.20762
2.21203
2.21983
2.23401
2.27861
2.36315
2.47406
3.06935
4.65671
5.00446
6.09697
5.9304
4.09299
2.75645
4.87289
8.59951
4.34973
2.47958
2.30063
2.21903
2.1935
2.18871
2.18821
2.18835
2.18857
2.1888
2.18901
2.18919
2.18939
2.18953
2.18964
2.18972
2.18976
2.18978
2.18979
2.18978
2.18977
2.18976
2.18974
2.18973
2.18972
2.18973
2.15417
2.15425
2.15437
2.15456
2.15481
2.15511
2.15547
2.15592
2.15643
2.15702
2.15769
2.15844
2.1593
2.16029
2.16142
2.16277
2.16443
2.16654
2.16947
2.17374
2.18118
2.19502
2.24263
2.33531
2.45156
3.7001
5.53099
5.04141
5.266
4.68253
3.6147
3.73599
7.52925
10.1905
4.5313
2.44763
2.2768
2.18881
2.1587
2.15234
2.15156
2.15156
2.15167
2.15179
2.15192
2.15202
2.15212
2.15223
2.15231
2.15235
2.15238
2.15238
2.15237
2.15234
2.15232
2.15229
2.15227
2.15224
2.15223
2.15224
2.1177
2.11778
2.1179
2.11809
2.11833
2.11863
2.119
2.11944
2.11996
2.12054
2.12121
2.12195
2.1228
2.12376
2.12487
2.12617
2.12775
2.12975
2.13256
2.1367
2.14379
2.15723
2.20616
2.30328
2.52501
4.29704
6.12746
5.13573
4.76867
4.19305
3.77364
4.67532
8.81264
10.3168
4.46612
2.41725
2.24993
2.15859
2.12488
2.11715
2.11612
2.11599
2.11601
2.11603
2.11609
2.11614
2.11617
2.1162
2.11624
2.11626
2.11626
2.11624
2.11621
2.11618
2.11614
2.1161
2.11606
2.11603
2.11602
2.11602
2.08243
2.08251
2.08263
2.08281
2.08304
2.08335
2.08372
2.08417
2.08467
2.08525
2.08591
2.08664
2.08747
2.08841
2.08949
2.09074
2.09223
2.09417
2.09688
2.10086
2.10766
2.12072
2.1695
2.26727
2.68844
4.71896
6.80207
6.12476
5.13192
4.3072
4.21477
5.44025
9.04432
9.55402
4.24441
2.3936
2.22067
2.12814
2.09187
2.08306
2.08183
2.08159
2.08152
2.08146
2.08145
2.08145
2.08143
2.0814
2.08137
2.08137
2.08134
2.08131
2.08126
2.08122
2.08116
2.08111
2.08107
2.08103
2.08101
2.08101
2.0483
2.04837
2.04849
2.04866
2.0489
2.04921
2.04958
2.05002
2.05052
2.05109
2.05173
2.05245
2.05326
2.05418
2.05523
2.05643
2.05787
2.05976
2.06235
2.0662
2.07276
2.08547
2.13316
2.22902
2.86552
5.00805
7.33769
7.05091
5.24598
4.30349
4.52712
6.06395
8.97614
8.66061
3.99699
2.37755
2.18982
2.09739
2.05958
2.05
2.0486
2.04828
2.04813
2.04801
2.04794
2.04788
2.04782
2.04775
2.04768
2.04761
2.04757
2.04751
2.04745
2.04739
2.04733
2.04727
2.04722
2.04717
2.04715
2.04715
2.01524
2.01532
2.01543
2.01561
2.01585
2.01615
2.01652
2.01695
2.01744
2.018
2.01863
2.01934
2.02013
2.02103
2.02203
2.02319
2.0246
2.02644
2.02894
2.03266
2.03901
2.0514
2.09764
2.18972
3.00541
5.11006
7.56325
7.63978
4.99226
4.13176
4.83333
6.48026
8.81638
7.89348
3.80575
2.36838
2.15844
2.06645
2.028
2.01791
2.01639
2.01601
2.0158
2.01562
2.0155
2.01539
2.01529
2.01518
2.01508
2.01497
2.01487
2.0148
2.01473
2.01465
2.01459
2.01452
2.01446
2.01441
2.01438
2.01437
1.98322
1.9833
1.98341
1.98359
1.98382
1.98412
1.98448
1.98491
1.98539
1.98594
1.98656
1.98725
1.98802
1.98889
1.98987
1.99099
1.99237
1.99416
1.99657
2.0002
2.00634
2.01842
2.0631
2.15087
3.09666
5.03665
7.54811
8.19523
4.94117
3.86349
5.0757
6.75718
8.56963
7.34096
3.69053
2.36499
2.12689
2.03554
1.99716
1.98675
1.98514
1.98472
1.98446
1.98423
1.98407
1.98392
1.98377
1.98364
1.9835
1.98337
1.98324
1.98312
1.98304
1.98295
1.98287
1.9828
1.98273
1.98268
1.98264
1.98264
1.95219
1.95226
1.95238
1.95255
1.95278
1.95308
1.95343
1.95385
1.95432
1.95486
1.95547
1.95614
1.95689
1.95773
1.95867
1.95978
1.96113
1.96287
1.96521
1.96875
1.97468
1.98645
2.02955
2.11314
3.14781
4.87538
7.30473
8.68372
5.11911
3.58982
4.56787
6.64032
8.25187
7.05925
3.64024
2.36355
2.09571
2.00497
1.96711
1.95649
1.95481
1.95436
1.95408
1.95381
1.9536
1.95341
1.95324
1.95306
1.9529
1.95274
1.95259
1.95245
1.95233
1.95224
1.95215
1.95207
1.952
1.95193
1.9519
1.95189
1.9221
1.92217
1.92228
1.92245
1.92268
1.92297
1.92332
1.92372
1.92419
1.92472
1.92531
1.92597
1.9267
1.9275
1.92842
1.92952
1.93083
1.93253
1.93479
1.93824
1.94397
1.95543
1.99693
2.0771
3.17375
4.71305
6.8822
8.89992
5.45431
3.59018
3.96482
6.13456
7.67261
6.95042
3.62263
2.35699
2.06486
1.97497
1.9379
1.92711
1.92538
1.92492
1.9246
1.9243
1.92406
1.92383
1.92362
1.92342
1.92323
1.92305
1.92288
1.92272
1.92257
1.92245
1.92236
1.92227
1.9222
1.92213
1.92209
1.92208
1.8929
1.89298
1.89308
1.89325
1.89347
1.89376
1.8941
1.8945
1.89495
1.89547
1.89605
1.89669
1.89739
1.89817
1.89908
1.90015
1.90142
1.90308
1.90527
1.90864
1.91417
1.92532
1.96522
2.04331
3.17633
4.59003
6.43725
8.75261
5.8724
3.78973
3.64532
5.3368
6.86064
6.76741
3.64732
2.33883
2.03349
1.94569
1.90952
1.89858
1.89682
1.89634
1.89599
1.89566
1.89539
1.89513
1.8949
1.89467
1.89445
1.89425
1.89406
1.89388
1.89372
1.89358
1.89346
1.89337
1.89329
1.89322
1.89318
1.89317
1.86457
1.86464
1.86474
1.86491
1.86513
1.8654
1.86574
1.86613
1.86657
1.86707
1.86764
1.86826
1.86893
1.86971
1.8706
1.87164
1.87287
1.8745
1.8766
1.87989
1.88523
1.89607
1.93448
2.01233
3.16291
4.50198
6.09194
8.31548
6.18587
4.08308
3.67502
4.80288
6.27281
6.58981
3.67154
2.30917
2.00124
1.91717
1.88197
1.87088
1.86909
1.86859
1.86822
1.86785
1.86756
1.86727
1.86701
1.86676
1.86652
1.86629
1.86608
1.86589
1.86572
1.86556
1.86543
1.86532
1.86523
1.86517
1.86513
1.86512
1.83705
1.83712
1.83723
1.83739
1.8376
1.83787
1.8382
1.83857
1.83901
1.8395
1.84005
1.84065
1.8413
1.84207
1.84293
1.84395
1.84514
1.84672
1.84876
1.85197
1.85711
1.86767
1.9047
1.98432
3.1388
4.57357
6.01472
8.16476
6.49004
4.37652
3.89786
4.81896
6.20833
6.32884
3.40575
2.27188
1.96875
1.88941
1.85519
1.84397
1.84215
1.84164
1.84124
1.84085
1.84053
1.84022
1.83993
1.83965
1.83939
1.83915
1.83892
1.83871
1.83853
1.83836
1.83822
1.83809
1.838
1.83793
1.83789
1.83788
1.81032
1.81039
1.81049
1.81065
1.81086
1.81112
1.81144
1.81181
1.81223
1.81271
1.81324
1.81381
1.81446
1.81521
1.81605
1.81704
1.81819
1.81974
1.8217
1.82482
1.82978
1.84006
1.87647
2.10491
3.10336
4.49419
5.72352
7.45514
5.91075
3.87951
3.34399
4.18123
5.70003
6.07512
3.35839
2.23239
1.90557
1.8624
1.82911
1.81783
1.81598
1.81545
1.81502
1.81462
1.81426
1.81393
1.81362
1.81332
1.81304
1.81278
1.81254
1.81231
1.81211
1.81194
1.81178
1.81165
1.81155
1.81147
1.81144
1.81142
1.78435
1.78442
1.78452
1.78467
1.78487
1.78513
1.78544
1.7858
1.78621
1.78667
1.78718
1.78774
1.78838
1.7891
1.78991
1.79088
1.79199
1.7935
1.79539
1.79843
1.80321
1.81321
1.8492
2.08849
3.37353
4.59951
5.59588
6.14747
4.40124
2.87329
2.72753
3.82601
5.2923
5.13431
2.97955
2.06933
1.87871
1.83608
1.80369
1.79241
1.79055
1.79
1.78954
1.78911
1.78873
1.78838
1.78805
1.78773
1.78743
1.78715
1.78689
1.78666
1.78644
1.78626
1.7861
1.78596
1.78585
1.78577
1.78573
1.78571
1.75909
1.75916
1.75926
1.75941
1.7596
1.75985
1.76016
1.76051
1.76091
1.76135
1.76184
1.76239
1.76301
1.76372
1.7645
1.76544
1.76651
1.76798
1.7698
1.77276
1.77738
1.78711
1.8229
2.07145
3.30825
4.48115
5.27862
5.46482
3.63592
2.24618
2.11957
3.15484
4.70726
4.8474
2.92145
2.03923
1.85268
1.81044
1.77895
1.7677
1.76581
1.76525
1.76476
1.76431
1.76391
1.76353
1.76318
1.76284
1.76253
1.76223
1.76196
1.76171
1.76149
1.76129
1.76112
1.76098
1.76086
1.76077
1.76072
1.76072
1.73453
1.7346
1.73469
1.73484
1.73503
1.73527
1.73557
1.73591
1.7363
1.73673
1.7372
1.73774
1.73834
1.73902
1.73978
1.74069
1.74172
1.74315
1.74491
1.74777
1.75224
1.76171
1.79755
2.054
3.24578
4.36552
4.98947
4.88777
3.03957
1.77754
1.6758
2.64866
4.23481
4.5757
2.86185
2.00948
1.82741
1.78546
1.75485
1.74366
1.74175
1.74117
1.74065
1.74018
1.73975
1.73935
1.73898
1.73863
1.7383
1.73799
1.7377
1.73744
1.73721
1.73701
1.73683
1.73668
1.73656
1.73647
1.73641
1.7364
1.71064
1.71071
1.7108
1.71094
1.71112
1.71136
1.71164
1.71197
1.71235
1.71276
1.71322
1.71375
1.71433
1.71499
1.71572
1.71661
1.7176
1.71898
1.72068
1.72346
1.72779
1.73699
1.77312
2.03634
3.1866
4.25426
4.72748
4.39648
2.56504
1.41969
1.34827
2.27428
3.84167
4.32073
2.80163
1.98009
1.80286
1.76113
1.73138
1.72026
1.71832
1.71773
1.71718
1.71669
1.71624
1.71582
1.71543
1.71506
1.71471
1.71439
1.7141
1.71383
1.71358
1.71337
1.71319
1.71304
1.71291
1.71282
1.71276
1.71274
1.68738
1.68745
1.68754
1.68767
1.68785
1.68808
1.68836
1.68868
1.68904
1.68944
1.68989
1.6904
1.69096
1.6916
1.69231
1.69316
1.69412
1.69546
1.6971
1.69979
1.70399
1.71293
1.74959
2.01871
3.13101
4.14755
4.48848
3.97399
2.17927
1.143
1.10478
1.99504
3.50743
4.0829
2.74137
1.95108
1.77901
1.7374
1.70851
1.69746
1.6955
1.6949
1.69432
1.69381
1.69334
1.69291
1.6925
1.69211
1.69176
1.69142
1.69111
1.69084
1.69059
1.69037
1.69018
1.69002
1.68989
1.68979
1.68973
1.68971
1.66475
1.66481
1.6649
1.66503
1.6652
1.66543
1.66569
1.666