/*--------------------------------*- C++ -*----------------------------------*\
  =========                 |
  \\      /  F ield         | OpenFOAM: The Open Source CFD Toolbox
   \\    /   O peration     | Website:  https://openfoam.org
    \\  /    A nd           | Version:  12
     \\/     M anipulation  |
\*---------------------------------------------------------------------------*/
FoamFile
{
    format      ascii;
    class       volScalarField;
    location    "180";
    object      p;
}
// * * * * * * * * * * * * * * * * * * * * * * * * * * * * * * * * * * * * * //

dimensions      [0 2 -2 0 0 0 0];

internalField   nonuniform List<scalar> 
16227
(
0.0912553
0.091352
0.0915444
0.0918314
0.0922112
0.0926814
0.093239
0.0938801
0.0945999
0.0953932
0.0962534
0.0971733
0.0981444
0.0991582
0.100205
0.101273
0.102351
0.103428
0.104489
0.105521
0.106511
0.107445
0.10831
0.109093
0.109781
0.110364
0.110832
0.111179
0.111397
0.111483
0.111437
0.111258
0.11095
0.110519
0.109971
0.109315
0.108563
0.107725
0.106814
0.105844
0.104828
0.103778
0.10271
0.101634
0.100564
0.0995109
0.0984851
0.0974963
0.0965535
0.0956644
0.0948362
0.094075
0.0933861
0.092774
0.0922426
0.0917951
0.0914343
0.091162
0.0909797
0.0908882
0.091184
0.091281
0.0914743
0.0917626
0.0921442
0.0926167
0.0931771
0.0938215
0.0945454
0.0953431
0.0962086
0.0971345
0.0981124
0.0991335
0.100188
0.101265
0.102352
0.103438
0.104509
0.105552
0.106552
0.107496
0.10837
0.109162
0.109858
0.110448
0.110922
0.111273
0.111494
0.111581
0.111534
0.111353
0.111042
0.110605
0.11005
0.109387
0.108626
0.107779
0.106858
0.105878
0.104852
0.103793
0.102715
0.10163
0.100552
0.0994909
0.0984578
0.0974626
0.0965139
0.0956197
0.0947869
0.0940217
0.0933294
0.0927144
0.0921807
0.0917313
0.091369
0.0910957
0.0909127
0.0908209
0.0910249
0.0911229
0.091318
0.0916093
0.0919949
0.0924724
0.093039
0.0936909
0.0944235
0.0952314
0.0961084
0.0970476
0.0980404
0.0990777
0.10015
0.101246
0.102353
0.103461
0.104554
0.105619
0.106642
0.107608
0.108503
0.109314
0.110028
0.110634
0.111121
0.111481
0.111709
0.111799
0.111751
0.111565
0.111245
0.110796
0.110227
0.109547
0.108767
0.107899
0.106957
0.105955
0.104907
0.103826
0.102727
0.101623
0.100526
0.0994476
0.0983987
0.0973891
0.0964275
0.0955218
0.094679
0.093905
0.0932051
0.0925839
0.0920449
0.0915914
0.0912258
0.09095
0.0907654
0.0906729
0.0907552
0.0908547
0.0910531
0.0913492
0.0917414
0.0922273
0.0928043
0.0934686
0.0942159
0.0950407
0.0959371
0.0968986
0.0979162
0.0989809
0.100083
0.101211
0.102352
0.103495
0.104626
0.105729
0.10679
0.107794
0.108725
0.109571
0.110316
0.110948
0.111457
0.111834
0.112072
0.112167
0.112117
0.111923
0.111589
0.111121
0.110527
0.109818
0.109005
0.108103
0.107125
0.106086
0.105001
0.103884
0.10275
0.101612
0.100483
0.0993758
0.0983003
0.0972665
0.0962833
0.0953584
0.0944987
0.09371
0.0929976
0.0923658
0.0918181
0.0913575
0.0909864
0.0907066
0.0905193
0.0904255
0.0903805
0.0904822
0.0906849
0.0909877
0.0913889
0.0918864
0.0924776
0.0931591
0.0939266
0.0947749
0.0956982
0.0966904
0.0977425
0.0988452
0.0999883
0.101161
0.102351
0.103544
0.104726
0.105884
0.106999
0.108055
0.109038
0.109931
0.11072
0.11139
0.111931
0.112332
0.112585
0.112686
0.112633
0.112427
0.112073
0.111576
0.110947
0.110196
0.109338
0.108386
0.107357
0.106265
0.105128
0.10396
0.102776
0.101592
0.10042
0.0992717
0.0981592
0.0970921
0.096079
0.0951278
0.0942448
0.0934362
0.0927067
0.0920605
0.091501
0.0910309
0.0906523
0.090367
0.0901761
0.0900805
0.0899069
0.0900113
0.0902194
0.0905305
0.0909429
0.0914549
0.0920638
0.0927666
0.0935594
0.0944374
0.0953944
0.0964248
0.0975207
0.0986717
0.0998675
0.101097
0.102348
0.103605
0.104855
0.106082
0.107266
0.108392
0.109441
0.110396
0.111241
0.111961
0.112542
0.112973
0.113246
0.113355
0.113298
0.113076
0.112694
0.112159
0.111483
0.110678
0.10976
0.108744
0.107647
0.106488
0.105282
0.104048
0.102802
0.101558
0.10033
0.0991308
0.0979718
0.0968628
0.0958125
0.0948283
0.0939167
0.0930832
0.0923328
0.091669
0.091095
0.0906132
0.0902256
0.0899336
0.0897384
0.0896406
0.0893311
0.0894386
0.089653
0.0899738
0.0903994
0.0909284
0.0915583
0.0922864
0.0931093
0.0940225
0.09502
0.0960961
0.0972445
0.0984542
0.0997143
0.101014
0.102339
0.103676
0.105009
0.106321
0.107592
0.108804
0.109936
0.110969
0.111886
0.112668
0.1133
0.11377
0.114067
0.114186
0.114123
0.11388
0.113463
0.11288
0.112145
0.111271
0.110276
0.109179
0.107998
0.106753
0.105464
0.104149
0.102824
0.101507
0.100211
0.0989499
0.0977347
0.0965754
0.0954804
0.094457
0.0935114
0.0926487
0.0918736
0.0911893
0.0905983
0.0901029
0.0897047
0.089405
0.0892047
0.0891044
0.0886465
0.0887575
0.0889791
0.0893108
0.0897514
0.0902996
0.0909535
0.0917106
0.0925679
0.0935216
0.0945664
0.0956959
0.0969049
0.098184
0.0995204
0.100903
0.102317
0.10375
0.105183
0.1066
0.107977
0.109293
0.110527
0.111658
0.112663
0.113522
0.114219
0.114737
0.115065
0.115196
0.115126
0.114857
0.114396
0.113754
0.112944
0.111984
0.110895
0.109698
0.108413
0.107065
0.105673
0.104259
0.102841
0.101436
0.10006
0.098725
0.0974436
0.0962252
0.0950782
0.0940094
0.0930244
0.0921285
0.0913253
0.0906175
0.0900073
0.0894965
0.0890864
0.088778
0.0885721
0.088469
0.0878486
0.0879635
0.0881928
0.0885365
0.0889934
0.0895628
0.0902432
0.0910326
0.0919284
0.0929276
0.0940258
0.0952165
0.0964944
0.0978529
0.0992778
0.100757
0.102276
0.103822
0.105375
0.106916
0.10842
0.109864
0.111222
0.11247
0.113583
0.114539
0.115314
0.115892
0.116259
0.116405
0.116326
0.116025
0.11551
0.114793
0.113892
0.112828
0.111623
0.110304
0.108895
0.107421
0.105907
0.104376
0.102847
0.101339
0.0998687
0.0984489
0.0970913
0.0958056
0.0945994
0.0934793
0.0924504
0.0915175
0.0906831
0.0899494
0.089318
0.0887904
0.0883674
0.0880496
0.0878375
0.0877314
0.086934
0.087053
0.0872906
0.0876469
0.0881213
0.0887134
0.0894223
0.0902466
0.0911845
0.0922336
0.0933905
0.0946498
0.0960055
0.0974531
0.0989788
0.100569
0.10221
0.103887
0.105579
0.107267
0.108922
0.110518
0.112025
0.113416
0.114661
0.115732
0.116605
0.117256
0.11767
0.117835
0.117746
0.117406
0.116824
0.116016
0.115003
0.113811
0.112466
0.111
0.109441
0.107818
0.10616
0.104491
0.102833
0.101207
0.0996286
0.0981121
0.0966688
0.0953077
0.0940358
0.0928589
0.0917825
0.0908093
0.0899413
0.0891798
0.088526
0.0879806
0.0875439
0.0872162
0.0869978
0.0868885
0.0858994
0.0860226
0.0862686
0.0866379
0.0871304
0.087746
0.0884848
0.0893461
0.0903289
0.0914316
0.0926519
0.093986
0.0954277
0.0969734
0.0986124
0.100327
0.102107
0.103936
0.105791
0.10765
0.109483
0.111258
0.112944
0.114506
0.11591
0.117122
0.118113
0.118854
0.119326
0.119514
0.119412
0.119023
0.11836
0.117441
0.116291
0.114943
0.11343
0.111787
0.11005
0.108251
0.106424
0.104595
0.102789
0.101028
0.0993279
0.0977032
0.0961647
0.0947209
0.0933778
0.0921401
0.0910128
0.089997
0.0890935
0.0883032
0.0876261
0.0870624
0.0866119
0.0862742
0.0860492
0.0859368
0.0847406
0.0848678
0.0851222
0.0855045
0.0860151
0.0866547
0.0874239
0.0883232
0.0893527
0.0905119
0.0917996
0.0932137
0.0947489
0.0964011
0.098165
0.100021
0.101958
0.103958
0.106
0.108057
0.1101
0.112088
0.113985
0.115752
0.117348
0.118732
0.119866
0.120718
0.121261
0.121478
0.12136
0.120911
0.120147
0.119091
0.117776
0.116239
0.114522
0.112668
0.110719
0.108714
0.106689
0.104676
0.102702
0.100788
0.0989527
0.0972088
0.0955665
0.0940333
0.0926141
0.0913129
0.0901325
0.0890725
0.088133
0.0873134
0.0866131
0.0860313
0.0855671
0.0852196
0.0849883
0.0848728
0.0834533
0.0835844
0.0838467
0.0842415
0.0847696
0.0854324
0.0862317
0.0871692
0.0882459
0.0894631
0.090821
0.0923191
0.0939544
0.0957223
0.0976206
0.0996333
0.101746
0.103941
0.106195
0.108481
0.110766
0.113005
0.115155
0.117167
0.118995
0.120587
0.121898
0.122885
0.123516
0.123768
0.123631
0.123109
0.122221
0.120997
0.119478
0.117711
0.115749
0.113642
0.111442
0.109195
0.106942
0.104719
0.102555
0.100471
0.0984867
0.0966131
0.0948594
0.0932314
0.0917333
0.0903666
0.089132
0.0880277
0.0870523
0.0862041
0.0854814
0.0848823
0.0844052
0.0840486
0.0838115
0.0836931
0.0820332
0.0821679
0.0824374
0.0828434
0.0833876
0.0840723
0.0849001
0.0858743
0.0869974
0.0882726
0.0897017
0.0912866
0.0930267
0.0949186
0.0969605
0.0991434
0.10145
0.103865
0.106362
0.108911
0.111478
0.114011
0.116459
0.118766
0.120873
0.12272
0.124247
0.125402
0.126143
0.126439
0.126279
0.125666
0.124624
0.123193
0.121423
0.119377
0.117117
0.114708
0.112212
0.109682
0.107166
0.104705
0.102327
0.100057
0.0979099
0.0958976
0.0940268
0.0923009
0.0907222
0.0892893
0.088001
0.0868536
0.0858441
0.0849691
0.0842257
0.0836109
0.0831223
0.0827576
0.0825155
0.0823945
0.0804767
0.0806142
0.0808896
0.0813051
0.0818632
0.082567
0.0834206
0.0844286
0.0855956
0.0869266
0.088426
0.0900982
0.0919456
0.0939675
0.0961632
0.0985289
0.101048
0.103706
0.106477
0.109328
0.112222
0.115101
0.117903
0.120563
0.123009
0.125166
0.12696
0.128325
0.129203
0.129556
0.129367
0.12864
0.127407
0.125719
0.123641
0.121251
0.118631
0.11586
0.113013
0.110154
0.107338
0.104607
0.101994
0.0995195
0.0971988
0.0950404
0.0930484
0.0912243
0.0895654
0.0880681
0.0867288
0.0855412
0.0845006
0.0836018
0.0828406
0.0822127
0.0817147
0.0813436
0.0810974
0.0809745
0.0787803
0.0789198
0.0791994
0.0796219
0.0801905
0.0809096
0.0817845
0.0828217
0.0840278
0.0854102
0.0869764
0.0887334
0.0906878
0.0928426
0.0951997
0.0977596
0.100509
0.103434
0.106512
0.109707
0.112979
0.116264
0.119487
0.122571
0.12543
0.127969
0.130095
0.131722
0.132774
0.133201
0.132976
0.132108
0.130635
0.128625
0.126163
0.123351
0.120292
0.117086
0.113824
0.110583
0.107425
0.104394
0.101522
0.0988289
0.0963253
0.0940162
0.0919034
0.0899825
0.0882466
0.0866894
0.0853038
0.0840811
0.0830142
0.0820963
0.0813213
0.0806838
0.0801791
0.0798038
0.079555
0.0794309
0.0769416
0.0770819
0.0773634
0.0777895
0.0783643
0.0790933
0.0799834
0.0810428
0.0822809
0.0837076
0.0853336
0.08717
0.0892273
0.0915139
0.0940358
0.0967987
0.0997945
0.103012
0.10643
0.110014
0.11372
0.117482
0.121207
0.124802
0.128164
0.131175
0.133718
0.135677
0.136954
0.137477
0.13721
0.136162
0.134386
0.13197
0.129028
0.125692
0.122095
0.118365
0.114614
0.110931
0.107386
0.104023
0.100873
0.0979487
0.0952576
0.0927986
0.090568
0.088555
0.0867485
0.0851391
0.0837148
0.0824642
0.0813779
0.080447
0.0796636
0.0790209
0.0785133
0.0781364
0.0778869
0.0777625
0.074959
0.0750987
0.0753793
0.0758048
0.0763801
0.0771121
0.0780092
0.0790818
0.0803417
0.0818022
0.0834774
0.0853831
0.0875348
0.0899472
0.0926322
0.0956027
0.098857
0.102389
0.106183
0.110206
0.114409
0.118726
0.123049
0.127263
0.13124
0.13484
0.137909
0.140295
0.141864
0.142515
0.142197
0.140921
0.138757
0.135824
0.132276
0.128285
0.124026
0.119663
0.115334
0.111145
0.107167
0.103443
0.0999965
0.096835
0.0939568
0.0913548
0.0890147
0.0869197
0.0850538
0.083403
0.0819504
0.0806818
0.0795851
0.0786489
0.0778639
0.0772216
0.0767155
0.0763404
0.0760924
0.0759688
0.0728326
0.07297
0.0732462
0.0736659
0.074235
0.0749614
0.0758552
0.076929
0.0781975
0.0796772
0.0813868
0.0833465
0.0855784
0.0881042
0.0909439
0.0941199
0.0976396
0.101504
0.105708
0.110222
0.114996
0.119962
0.124996
0.129955
0.134687
0.139022
0.142762
0.145703
0.147658
0.148483
0.148104
0.146535
0.143871
0.140274
0.135952
0.131135
0.126054
0.120924
0.115917
0.11115
0.106695
0.102586
0.0988348
0.0954365
0.0923819
0.0896495
0.0872145
0.0850532
0.0831443
0.081467
0.08
0.078726
0.0776299
0.0766983
0.0759197
0.0752846
0.0747853
0.0744159
0.0741719
0.0740503
0.0705642
0.0706972
0.0709652
0.071373
0.0719276
0.0726381
0.0735162
0.0745766
0.0758367
0.0773169
0.0790404
0.0810329
0.0833234
0.0859426
0.0889197
0.0922894
0.0960722
0.100281
0.104923
0.109981
0.115406
0.121124
0.127006
0.132866
0.138524
0.143783
0.148391
0.152065
0.154538
0.155604
0.155152
0.153199
0.14988
0.145421
0.140103
0.134233
0.128124
0.122063
0.116263
0.110849
0.10588
0.101373
0.0973192
0.093699
0.0904865
0.0876444
0.0851371
0.0829323
0.0810021
0.0793177
0.077854
0.0765902
0.0755082
0.0745925
0.0738299
0.0732097
0.0727233
0.072364
0.072127
0.072009
0.0681577
0.0682841
0.0685392
0.0689282
0.0694589
0.0701414
0.0709891
0.0720185
0.0732498
0.074707
0.0764182
0.078415
0.0807341
0.0834162
0.0865019
0.0900397
0.0940706
0.0986235
0.103724
0.109372
0.115532
0.122126
0.129018
0.135967
0.142743
0.14917
0.154909
0.159566
0.162752
0.16416
0.163623
0.161166
0.156982
0.151393
0.144785
0.137564
0.130137
0.122944
0.116231
0.110107
0.104601
0.0996993
0.0953658
0.0915562
0.0882185
0.0852999
0.0827526
0.0805355
0.078611
0.0769438
0.0755047
0.0742695
0.0732173
0.0723306
0.0715949
0.0709983
0.0705316
0.0701875
0.0699607
0.0698479
0.0656192
0.0657365
0.0659736
0.0663362
0.0668323
0.0674733
0.0682736
0.0692517
0.0704298
0.0718356
0.0735018
0.0754666
0.0777741
0.0804765
0.0836277
0.087292
0.0915371
0.0964146
0.101975
0.108252
0.115234
0.122852
0.130959
0.139233
0.147353
0.155275
0.162513
0.168507
0.172679
0.174564
0.17391
0.170755
0.165394
0.158293
0.14999
0.141009
0.131911
0.123357
0.115622
0.108752
0.102718
0.0974548
0.0928887
0.0889387
0.0855248
0.0825767
0.080033
0.0778428
0.0759575
0.0743366
0.0729472
0.0717617
0.0707571
0.0699142
0.0692173
0.068654
0.0682143
0.0678907
0.0676777
0.0675717
0.0629573
0.0630629
0.0632766
0.0636043
0.0640545
0.064639
0.0653731
0.0662765
0.0673736
0.0686948
0.070277
0.0721644
0.0744094
0.0770751
0.0802316
0.0839609
0.0883599
0.0935133
0.0995081
0.106426
0.114306
0.123114
0.132708
0.14264
0.152132
0.161987
0.171226
0.179085
0.184674
0.187269
0.186487
0.182395
0.175453
0.166352
0.15585
0.144657
0.13313
0.12298
0.11416
0.106564
0.100064
0.0945149
0.0897932
0.0857758
0.0823548
0.0794399
0.0769558
0.074839
0.0730326
0.0714918
0.0701804
0.0690683
0.0681306
0.0673473
0.0667022
0.0661822
0.0657774
0.06548
0.0652844
0.0651871
0.0601834
0.0602744
0.0604591
0.0607432
0.0611354
0.0616475
0.062295
0.0630985
0.0640836
0.0652824
0.0667352
0.0684914
0.0706105
0.073167
0.0762468
0.0799524
0.0844102
0.0897503
0.0961108
0.103637
0.112458
0.122635
0.134057
0.146293
0.153479
0.16524
0.176524
0.186653
0.194353
0.198509
0.198448
0.194126
0.186116
0.175352
0.162834
0.149613
0.133121
0.121332
0.111485
0.103277
0.0964437
0.0907406
0.0859809
0.0820007
0.0786638
0.0758617
0.0735042
0.0715152
0.0698331
0.0684104
0.067208
0.0661945
0.0653443
0.0646374
0.0640573
0.0635912
0.0632293
0.0629637
0.0627893
0.0627025
0.0573117
0.0573853
0.0575353
0.0577672
0.0580889
0.0585122
0.0590522
0.059729
0.0605684
0.0616036
0.0628761
0.0644389
0.0663575
0.068715
0.071613
0.0751744
0.0795547
0.084937
0.091526
0.0995511
0.109262
0.120926
0.134773
0.144279
0.16122
0.175624
0.189993
0.20333
0.213537
0.218752
0.217887
0.211013
0.199236
0.18415
0.167253
0.149725
0.1353
0.11769
0.10714
0.098613
0.0916722
0.0860004
0.0813648
0.0775593
0.0744219
0.071828
0.0696721
0.067872
0.0663644
0.0651
0.0640391
0.0631504
0.0624089
0.061795
0.0612934
0.0608915
0.0605802
0.0603523
0.0602026
0.0601281
0.0543594
0.0544129
0.0545229
0.0546939
0.0549333
0.0552517
0.0556629
0.0561859
0.0568452
0.057673
0.0587104
0.0600113
0.0616439
0.0636971
0.0662843
0.0695472
0.0736687
0.0788797
0.085466
0.0937532
0.104141
0.117124
0.133561
0.146996
0.166451
0.181465
0.199287
0.217141
0.231558
0.239474
0.238992
0.23009
0.214563
0.195004
0.173624
0.147857
0.130266
0.111756
0.100786
0.0923352
0.0855769
0.0801858
0.0758835
0.0724209
0.0696192
0.0673388
0.0654669
0.0639218
0.062641
0.0615761
0.0606893
0.0599512
0.0593389
0.0588346
0.0584241
0.0580963
0.0578431
0.057658
0.0575365
0.057476
0.0513463
0.0513776
0.0514424
0.051545
0.051691
0.0518895
0.0521521
0.0524952
0.0529405
0.053517
0.0542629
0.0552294
0.0564833
0.058114
0.0602402
0.0630161
0.0666462
0.0713991
0.0776331
0.0857792
0.0963942
0.110194
0.128341
0.145459
0.170096
0.193491
0.217817
0.242511
0.262615
0.272939
0.270111
0.254445
0.229754
0.201027
0.172299
0.142361
0.123751
0.103072
0.0921678
0.0842453
0.0780249
0.0732324
0.0695137
0.0665892
0.064272
0.0624163
0.0609147
0.0596913
0.0586885
0.0578627
0.0571808
0.0566177
0.0561537
0.0557737
0.055466
0.0552213
0.0550327
0.0548951
0.0548049
0.0547599
0.0482953
0.0483022
0.0483179
0.0483455
0.0483888
0.0484543
0.0485508
0.0486907
0.0488908
0.0491749
0.0495747
0.0501347
0.0509149
0.0519979
0.0534981
0.0555709
0.0584284
0.0623591
0.0677705
0.0751853
0.0852927
0.0990679
0.117887
0.138738
0.16837
0.199178
0.234171
0.270753
0.301954
0.318426
0.31322
0.287076
0.248193
0.206387
0.168662
0.13322
0.11282
0.0912907
0.081028
0.0741763
0.0689573
0.0651455
0.0622927
0.060114
0.0584305
0.0571102
0.0560618
0.0552222
0.0545438
0.0539927
0.0535432
0.053176
0.0528766
0.0526336
0.0524383
0.0522841
0.0521659
0.0520798
0.0520234
0.051995
0.0452309
0.0452121
0.0451758
0.0451236
0.0450572
0.04498
0.0448966
0.0448143
0.0447435
0.0446997
0.0447051
0.0447926
0.0450086
0.0454206
0.0461264
0.0472655
0.0490374
0.0517221
0.055739
0.0616577
0.0702506
0.0827586
0.100619
0.124884
0.158845
0.198151
0.247141
0.302885
0.354806
0.384978
0.376732
0.331319
0.26764
0.205949
0.157213
0.116781
0.095907
0.0755706
0.0669949
0.0620488
0.0584341
0.0560315
0.0543316
0.0530953
0.0521849
0.0515
0.0509765
0.050572
0.0502562
0.050008
0.0498121
0.0496571
0.0495347
0.0494382
0.0493629
0.0493047
0.0492609
0.0492293
0.0492086
0.0491979
0.0421794
0.0421342
0.0420444
0.0419099
0.04173
0.0415042
0.0412324
0.0409156
0.0405558
0.0401582
0.0397321
0.0392936
0.0388692
0.0385011
0.0382564
0.038239
0.0386086
0.0395976
0.0415836
0.0451141
0.0509482
0.0605286
0.0749593
0.101381
0.137449
0.184588
0.250473
0.334605
0.425836
0.488323
0.476061
0.390266
0.280606
0.189775
0.129948
0.0882801
0.0707298
0.0551804
0.0499168
0.0480094
0.0466902
0.0461146
0.0458214
0.0456959
0.0456708
0.0456959
0.0457476
0.0458133
0.0458848
0.0459577
0.0460288
0.0460962
0.0461583
0.0462143
0.0462633
0.0463046
0.0463377
0.0463625
0.0463785
0.0463859
0.039168
0.0390966
0.0389535
0.0387368
0.038443
0.0380679
0.0376056
0.0370499
0.0363935
0.0356295
0.0347507
0.0337529
0.032636
0.0314075
0.0300897
0.0287293
0.0274157
0.026289
0.0256133
0.0258162
0.0274964
0.0321529
0.0398446
0.0657568
0.0992466
0.150184
0.230434
0.34888
0.512794
0.660846
0.643912
0.459972
0.263807
0.137324
0.0748398
0.0433724
0.0358624
0.0304017
0.0303461
0.0326144
0.0341873
0.0357562
0.037051
0.0381438
0.0390646
0.0398338
0.040481
0.0410297
0.0414968
0.0418962
0.0422383
0.0425308
0.0427798
0.0429898
0.0431644
0.043306
0.0434169
0.0434983
0.0435516
0.0435774
0.0362237
0.036127
0.0359326
0.0356367
0.0352331
0.0347132
0.0340656
0.0332765
0.0323286
0.0312014
0.02987
0.0283066
0.0264794
0.0243545
0.021897
0.0190766
0.0158835
0.0123205
0.00846284
0.00449361
0.000648906
-0.00167575
-0.00442017
0.0168304
0.0402966
0.0858306
0.16465
0.297611
0.56162
0.971352
0.952103
0.489397
0.151586
0.0127208
-0.0212189
-0.0196629
-0.0076755
0.00323216
0.00980431
0.0169268
0.0216696
0.0254889
0.0284087
0.030721
0.0325714
0.034066
0.0352924
0.0363106
0.0371627
0.0378804
0.0384871
0.0389999
0.0394321
0.0397933
0.0400914
0.0403319
0.0405193
0.0406568
0.0407467
0.0407905
0.0333726
0.0332525
0.0330107
0.0326417
0.0321363
0.0314821
0.0306624
0.0296558
0.0284351
0.0269662
0.0252066
0.0231034
0.0205915
0.0175912
0.0140044
0.00971078
0.00457763
-0.00156472
-0.00889059
-0.0175692
-0.0279711
-0.0389016
-0.0552018
-0.0433507
-0.0380849
-0.0115197
0.0392127
0.0961782
0.212951
1.33991
1.47135
0.151252
-0.205063
-0.222467
-0.161684
-0.0937439
-0.0540277
-0.0224403
-0.00926528
0.00249191
0.0101382
0.0159741
0.0203396
0.0237304
0.0264035
0.0285464
0.0302966
0.0317437
0.0329508
0.033965
0.03482
0.0355411
0.0361472
0.0366529
0.0370692
0.0374046
0.0376657
0.037857
0.0379823
0.0380437
0.0306388
0.0304983
0.0302147
0.0297812
0.0291863
0.0284141
0.027443
0.0262452
0.0247844
0.0230146
0.0208764
0.0182942
0.0151709
0.0113823
0.00676788
0.0011156
-0.00583783
-0.0144506
-0.0251752
-0.0385767
-0.0558559
-0.0759965
-0.107448
-0.109217
-0.127876
-0.129001
-0.109056
-0.132512
-0.687347
-1.54836
-0.908367
-0.539643
-0.314365
-0.158814
-0.0923657
-0.0414221
-0.0238776
-0.00894395
0.000648529
0.00786721
0.0132612
0.0174455
0.0207486
0.0234096
0.0255931
0.0274048
0.0289212
0.0301986
0.0312776
0.0321886
0.032955
0.0335945
0.0341211
0.0345454
0.0348756
0.0351178
0.0352764
0.0353544
0.0280439
0.0278863
0.0275682
0.0270815
0.0264129
0.0255438
0.0244491
0.0230958
0.0214407
0.019428
0.0169853
0.0140184
0.0104038
0.0059803
0.000535249
-0.00622315
-0.0146749
-0.0253535
-0.0389764
-0.0564384
-0.0799292
-0.10841
-0.154295
-0.172423
-0.21837
-0.25437
-0.255782
-0.181027
0.724176
2.48636
-3.53263
-1.46231
-0.757978
-0.406738
-0.187169
-0.109747
-0.0490512
-0.0315104
-0.0159978
-0.00600618
0.00164092
0.00746703
0.0120595
0.0157426
0.018756
0.0212589
0.0233556
0.0251246
0.026624
0.0278964
0.0289743
0.0298832
0.030643
0.0312694
0.0317746
0.0321681
0.0324569
0.0326462
0.0327395
0.0256054
0.025435
0.0250908
0.0245641
0.0238404
0.0228997
0.0217144
0.0202487
0.018455
0.0162718
0.0136183
0.0103889
0.00644337
0.00159654
-0.00439852
-0.0118863
-0.0213266
-0.0333783
-0.0489709
-0.0691517
-0.0971157
-0.131442
-0.188215
-0.222586
-0.295234
-0.377923
-0.469188
-0.705505
-1.38169
-1.56394
-3.0311
-3.30991
-1.35327
-0.698104
-0.376301
-0.162241
-0.099395
-0.0440545
-0.0315008
-0.0183687
-0.00967091
-0.00261732
0.00301647
0.00762187
0.0114316
0.014628
0.0173333
0.0196326
0.0215949
0.0232724
0.0247047
0.0259239
0.0269555
0.0278201
0.0285343
0.029111
0.0295607
0.0298909
0.0301076
0.0302145
0.023337
0.0231582
0.0227971
0.0222447
0.0214864
0.0205016
0.0192623
0.0177319
0.0158619
0.0135892
0.0108312
0.00747962
0.00339011
-0.00163021
-0.00783674
-0.0155897
-0.0253737
-0.0378924
-0.0542002
-0.0752464
-0.105009
-0.141365
-0.202645
-0.249058
-0.337202
-0.457164
-0.618548
-1.09654
-2.82151
-3.79725
-2.22062
-1.10948
-0.608616
-0.386738
-0.234376
-0.0945866
-0.0667751
-0.03017
-0.0258688
-0.0172247
-0.0110083
-0.00528857
-0.000305453
0.00401714
0.00775835
0.0110019
0.0138123
0.0162435
0.0183459
0.0201603
0.0217205
0.0230554
0.0241894
0.0251426
0.0259316
0.0265697
0.0270679
0.0274341
0.0276744
0.0277933
0.0212476
0.021065
0.0206963
0.020133
0.0193609
0.0183603
0.0171044
0.0155584
0.0136759
0.0113972
0.00864442
0.00531589
0.00127686
-0.00365402
-0.00971391
-0.0172375
-0.0266695
-0.0386546
-0.0542639
-0.0741073
-0.102482
-0.136401
-0.194019
-0.245456
-0.329707
-0.453978
-0.586747
-0.924314
-1.61272
-1.86766
-0.483748
0.233676
0.0891169
-0.0380198
-0.0606164
-0.0176452
-0.0279415
-0.0149707
-0.0187595
-0.0148928
-0.0113208
-0.00711398
-0.00291916
0.00100914
0.00459228
0.00780865
0.0106635
0.0131768
0.0153782
0.0172953
0.0189548
0.0203818
0.0215985
0.0226241
0.0234748
0.0241638
0.0247024
0.0250987
0.025359
0.0254878
0.0193414
0.0191594
0.0187923
0.0182323
0.0174664
0.0164771
0.0152404
0.0137251
0.0118907
0.00968495
0.00704048
0.00387107
6.41493e-05
-0.0045312
-0.0101078
-0.0169346
-0.0253601
-0.0358744
-0.0494412
-0.0661779
-0.0901054
-0.117518
-0.163801
-0.212696
-0.277921
-0.378988
-0.447869
-0.594689
-0.77119
-0.647818
-0.0227898
0.452869
0.376084
0.176027
0.0623343
0.0334157
-0.00068505
-0.00634302
-0.0146388
-0.013919
-0.0120632
-0.00893233
-0.00530554
-0.00167785
0.00177617
0.00496059
0.00784111
0.0104118
0.0126854
0.0146791
0.0164141
0.017912
0.019193
0.0202754
0.0211747
0.0219041
0.0224749
0.0228952
0.0231715
0.0233083
0.017618
0.0174407
0.0170834
0.0165395
0.015798
0.0148442
0.0136582
0.0122145
0.0104804
0.00841507
0.00596657
0.00307072
-0.000352824
-0.00440911
-0.00922754
-0.014988
-0.0219031
-0.0302346
-0.0407036
-0.0529206
-0.07007
-0.0882243
-0.117962
-0.158604
-0.199363
-0.270445
-0.294355
-0.356757
-0.399629
-0.3319
-0.0879601
0.207384
0.315797
0.197636
0.0868506
0.0374936
0.00377749
-0.00852033
-0.0161683
-0.0159486
-0.0142444
-0.0113552
-0.0078286
-0.00426017
-0.000817221
0.00238506
0.00530611
0.00792911
0.01026
0.0123116
0.0141025
0.0156525
0.0169807
0.0181047
0.0190397
0.0197991
0.0203937
0.0208319
0.0211201
0.021263
0.0160728
0.0159036
0.0155631
0.0150461
0.0143441
0.0134457
0.012336
0.0109963
0.00940342
0.00752987
0.00534242
0.0028027
-0.000131401
-0.00351398
-0.00740304
-0.011878
-0.0169848
-0.0227297
-0.029509
-0.0365123
-0.0456981
-0.053504
-0.0645469
-0.0929923
-0.10974
-0.155322
-0.173335
-0.192877
-0.284812
-0.284915
-0.142968
-0.0505798
0.0244602
0.0524097
0.0245005
-0.0019492
-0.0138476
-0.0208838
-0.0233346
-0.0211232
-0.0180375
-0.0145295
-0.0106011
-0.00682014
-0.00324179
4.97159e-05
0.00304069
0.00572015
0.00809944
0.0101938
0.0120233
0.0136081
0.014967
0.0161179
0.0170762
0.017855
0.0184651
0.018915
0.0192111
0.019358
0.0146976
0.0145392
0.0142209
0.0137392
0.013088
0.0122597
0.0112447
0.0100315
0.00860711
0.00695807
0.00507061
0.00293179
0.000535471
-0.00212308
-0.00502298
-0.00814731
-0.0113862
-0.0145133
-0.0175546
-0.0194558
-0.0207229
-0.0186202
-0.0114955
-0.0254203
-0.0200333
-0.0394595
-0.105882
-0.172782
-0.195677
-0.197852
-0.179776
-0.21277
-0.274377
-0.132224
-0.0718473
-0.0614244
-0.0442044
-0.0385631
-0.0336721
-0.0281793
-0.0228009
-0.0181195
-0.0134498
-0.00927835
-0.00546082
-0.002027
0.00105523
0.0037914
0.00620847
0.00833008
0.0101806
0.0117826
0.0131561
0.0143194
0.0152883
0.0160759
0.0166933
0.0171488
0.0174487
0.0175976
0.0134815
0.0133357
0.0130434
0.0126025
0.0120095
0.0112606
0.0103512
0.00927673
0.00803393
0.00662227
0.00504527
0.00331154
0.00144591
-0.000510618
-0.00247006
-0.00433891
-0.00588354
-0.00671731
-0.00649457
-0.00414917
0.00128442
0.0113349
0.0333035
0.035039
0.0608973
0.0715211
0.0686299
0.104467
-0.0160807
-0.237174
-0.312468
-0.383067
-0.403889
-0.237792
-0.145007
-0.112668
-0.0740796
-0.0557141
-0.0438109
-0.0351866
-0.0274625
-0.021534
-0.0160353
-0.0114383
-0.0073611
-0.00378271
-0.000615934
0.00216242
0.00459882
0.0067275
0.00857907
0.0101794
0.0115504
0.0127112
0.013678
0.0144641
0.0150804
0.0155353
0.015835
0.0159838
0.0124113
0.0122793
0.0120151
0.0116181
0.011087
0.0104214
0.0096211
0.00868786
0.00762642
0.00644624
0.00516359
0.00380574
0.0024212
0.00108117
-7.85386e-05
-0.000919731
-0.00112775
-0.000262156
0.00234275
0.00749263
0.0174137
0.0321197
0.0628715
0.0790677
0.123722
0.167853
0.0117594
-0.250027
-0.173821
-0.278575
-0.412887
-0.426599
-0.364961
-0.247289
-0.174168
-0.140492
-0.0941168
-0.0679962
-0.0510972
-0.0404756
-0.0309802
-0.0241517
-0.0179922
-0.0130768
-0.0088019
-0.00513238
-0.00192537
0.000858903
0.00328486
0.00539386
0.00722257
0.00880025
0.0101506
0.0112935
0.0122453
0.0130193
0.0136264
0.0140746
0.01437
0.0145168
0.0114732
0.0113554
0.0111198
0.0107673
0.0102984
0.00971545
0.00902189
0.00822411
0.00733231
0.00636246
0.0053407
0.00430611
0.0033204
0.00246736
0.00190756
0.00178625
0.0024536
0.00428344
0.00817333
0.0143842
0.026
0.0412255
0.0727437
0.0972503
0.149324
0.209963
0.0698053
-0.282979
-0.487536
-0.362788
-0.360261
-0.318217
-0.263078
-0.212711
-0.170248
-0.144855
-0.101564
-0.0735535
-0.0541854
-0.0430733
-0.03266
-0.0255018
-0.0190271
-0.0140126
-0.00966906
-0.00600374
-0.00282893
-9.55489e-05
0.00227793
0.00433393
0.0061123
0.00764434
0.00895495
0.0100641
0.0109879
0.0117394
0.0123291
0.0127647
0.0130519
0.0131948
0.0106527
0.0105487
0.0103412
0.0100318
0.00962277
0.00911819
0.00852407
0.00784933
0.00710741
0.00631871
0.00551406
0.00473657
0.00405092
0.00353709
0.00335866
0.00363171
0.00470324
0.00677244
0.0108776
0.0165108
0.027162
0.0391332
0.064084
0.0869951
0.12644
0.193219
0.18614
-0.00383309
-0.331069
-0.522375
-0.424531
-0.275056
-0.200723
-0.176031
-0.150962
-0.133292
-0.0981836
-0.0725075
-0.0529023
-0.0426929
-0.0322472
-0.0253654
-0.018976
-0.0141422
-0.009903
-0.00636571
-0.00330596
-0.000688534
0.00158203
0.00354641
0.00524456
0.00670702
0.00795829
0.00901772
0.00990077
0.0106197
0.0111842
0.0116015
0.0118769
0.0120141
0.00993572
0.00984482
0.0096638
0.00939482
0.00904115
0.00860799
0.00810228
0.00753453
0.00691981
0.00627959
0.00564453
0.00505527
0.00457097
0.00425534
0.00425895
0.00464045
0.00572113
0.00745221
0.0109598
0.0148813
0.0228069
0.0294186
0.0441801
0.0585295
0.075166
0.11434
0.165696
0.0548788
-0.187562
-0.418989
-0.439703
-0.282995
-0.200925
-0.159353
-0.123377
-0.11308
-0.087235
-0.0660339
-0.0478418
-0.039553
-0.0298409
-0.0237735
-0.0178226
-0.013429
-0.0094749
-0.00620778
-0.00336039
-0.000926297
0.00118978
0.003022
0.00460947
0.00597865
0.00715164
0.00814622
0.00897638
0.00965316
0.0101852
0.010579
0.0108392
0.0109689
0.00930889
0.00923009
0.00907332
0.00884114
0.00853717
0.00816677
0.00773731
0.00725991
0.00674925
0.0062252
0.00571469
0.00525149
0.00488374
0.0046512
0.00468347
0.00496625
0.00579256
0.00683708
0.00930998
0.0110701
0.0157056
0.0168983
0.0220096
0.0268114
0.0253404
0.0298495
0.0632052
0.0111529
-0.330164
-0.583076
-0.448205
-0.254606
-0.197978
-0.145011
-0.0899476
-0.0888823
-0.0713789
-0.0555973
-0.0399648
-0.034182
-0.0257707
-0.020927
-0.0157005
-0.0119579
-0.00844114
-0.00556421
-0.00301833
-0.000834957
0.00108015
0.00274283
0.00419051
0.00544427
0.00652176
0.00743785
0.00820425
0.00883043
0.00932362
0.00968923
0.00993111
0.0100518
0.00876015
0.00869225
0.00855726
0.00835771
0.00809709
0.00778071
0.00741592
0.00701308
0.00658511
0.00614857
0.0057248
0.00533855
0.00502471
0.00479619
0.00476175
0.00483114
0.00528315
0.00552667
0.00689034
0.00664452
0.00837872
0.00548116
0.00384017
0.001926
-0.00794512
-0.0232857
-0.0235188
-0.026524
-0.150538
-0.276776
-0.321546
-0.242467
-0.175437
-0.0760576
-0.0507543
-0.0622235
-0.0524896
-0.0426899
-0.0303408
-0.0272687
-0.020502
-0.0171246
-0.0128205
-0.00988141
-0.00691556
-0.00451644
-0.00233375
-0.000454985
0.0012179
0.00268138
0.00396527
0.0050844
0.00605171
0.00687781
0.00757146
0.00813991
0.00858881
0.00892238
0.00914342
0.00925396
0.0082787
0.00822048
0.00810466
0.00793347
0.0077102
0.00743996
0.0071294
0.00678732
0.00642404
0.00605227
0.00568722
0.00534469
0.00504664
0.00478008
0.00463914
0.00446509
0.0045452
0.00405977
0.00449749
0.00275847
0.00245747
-0.0027486
-0.00783595
-0.0129163
-0.0238219
-0.0434787
-0.0576947
-0.0480423
0.168943
0.746359
0.343136
-0.217565
-0.119004
0.0550559
-0.0125788
-0.0331978
-0.0321518
-0.0287831
-0.0200166
-0.019547
-0.0145552
-0.0127138
-0.00942899
-0.00737518
-0.00503049
-0.00316607
-0.00138447