/*--------------------------------*- C++ -*----------------------------------*\
  =========                 |
  \\      /  F ield         | OpenFOAM: The Open Source CFD Toolbox
   \\    /   O peration     | Website:  https://openfoam.org
    \\  /    A nd           | Version:  12
     \\/     M anipulation  |
\*---------------------------------------------------------------------------*/
FoamFile
{
    format      ascii;
    class       surfaceScalarField;
    location    "180";
    object      phi;
}
// * * * * * * * * * * * * * * * * * * * * * * * * * * * * * * * * * * * * * //

dimensions      [0 3 -1 0 0 0 0];

internalField   nonuniform List<scalar> 
32440
(
-1.21555e-07
0.0399881
1.76179e-06
0.0399881
-3.48661e-07
0.0399901
1.55024e-06
0.0399881
-5.38055e-07
0.0399901
1.38927e-06
0.0399981
1.33571e-06
0.0400101
1.30405e-06
0.04001
3.29792e-06
0.04001
5.32044e-06
0.04001
7.37533e-06
0.0400099
3.46508e-06
0.0400039
3.59004e-06
0.0399999
3.75363e-06
0.0399998
3.95745e-06
0.0399998
4.20273e-06
0.0399998
4.49003e-06
0.0399997
4.81915e-06
0.0399997
5.18914e-06
0.0399996
5.59777e-06
0.0399996
6.04167e-06
0.0399996
6.51625e-06
0.0399995
7.01659e-06
0.0399995
7.53661e-06
0.0399995
8.0694e-06
0.0399995
8.60733e-06
0.0399995
9.14218e-06
0.0399995
9.66566e-06
0.0399995
8.56929e-06
0.0400011
3.38343e-06
0.0400052
2.28192e-06
0.0400011
2.47524e-06
0.0399998
2.81787e-06
0.0399997
3.1046e-06
0.0399997
4.33138e-06
0.0399988
4.49542e-06
0.0399998
4.59558e-06
0.0399999
4.63167e-06
0.04
4.60478e-06
0.04
4.517e-06
0.0400001
4.37137e-06
0.0400001
4.17165e-06
0.0400002
3.92213e-06
0.0400002
3.62744e-06
0.0400003
3.29248e-06
0.0400003
2.92194e-06
0.0400004
2.52048e-06
0.0400004
2.09289e-06
0.0400004
1.64235e-06
0.0400005
1.17292e-06
0.0400005
6.88054e-07
0.0400005
-1.80932e-06
0.0400025
-8.31583e-06
0.0400065
-2.83025e-06
0.0400065
6.48911e-07
0.0400085
1.23339e-07
0.0400105
1.59485e-06
0.0399985
1.06426e-06
0.0399885
5.32366e-07
0.0399905
0.0399885
-1.0243e-06
0.0399891
-2.0364e-06
0.0399891
-3.03085e-06
0.0399911
-3.99859e-06
0.0399891
-2.93006e-06
0.039989
-1.81612e-06
0.039997
-6.46712e-07
0.0400089
-1.41134e-06
0.0400108
-9.83007e-08
0.0400087
3.30285e-06
0.0400066
6.80654e-06
0.0400064
-1.57569e-06
0.0400123
-5.84079e-06
0.0400041
-5.97335e-06
0.04
-5.96425e-06
0.0399998
-5.80402e-06
0.0399996
-5.48542e-06
0.0399994
-5.00312e-06
0.0399992
-4.35351e-06
0.039999
-3.5367e-06
0.0399988
-2.5566e-06
0.0399986
-1.42211e-06
0.0399984
-1.42282e-07
0.0399982
1.26849e-06
0.0399981
2.79218e-06
0.0399979
4.60737e-06
0.0399976
6.28979e-06
0.0399978
7.61253e-06
0.0399982
7.94635e-06
0.0400008
3.9549e-06
0.0400092
4.12819e-06
0.0400009
5.71926e-06
0.0399982
7.2085e-06
0.0399982
8.57202e-06
0.0399983
8.58981e-06
0.0399988
9.64618e-06
0.0399988
1.05278e-05
0.039999
1.12269e-05
0.0399993
1.17399e-05
0.0399995
1.20666e-05
0.0399998
1.22105e-05
0.04
1.21778e-05
0.0400002
1.19773e-05
0.0400005
1.16205e-05
0.0400007
1.31174e-05
0.0399988
1.24813e-05
0.040001
1.17253e-05
0.0400012
1.08619e-05
0.0400013
9.90481e-06
0.0400014
8.86591e-06
0.0400015
5.75485e-06
0.0400036
5.83775e-07
0.0400077
-2.63731e-06
0.0400097
-1.9026e-06
0.0400058
-1.20317e-06
0.0400078
-5.31408e-07
0.0400099
4.11924e-06
0.0399939
7.54133e-07
0.0399919
1.3788e-06
0.0399899
0.0399899
-2.25798e-06
0.0399914
-4.49849e-06
0.0399914
-4.71149e-06
0.0399913
-6.88315e-06
0.0399912
-1.09983e-05
0.0399931
-7.0402e-06
0.039993
-8.99617e-06
0.0400108
-8.84379e-06
0.0400106
-8.56776e-06
0.0400084
-8.14408e-06
0.0400062
-7.55567e-06
0.0400059
-1.67673e-05
0.0400215
-1.97808e-05
0.0400072
-2.05677e-05
0.0400008
-2.11024e-05
0.0400003
-2.13698e-05
0.0399999
-2.13509e-05
0.0399994
-2.10315e-05
0.0399989
-1.63993e-05
0.0399943
-1.94473e-05
0.0400018
-1.81793e-05
0.0399973
-1.66014e-05
0.0399968
-1.47247e-05
0.0399963
-1.25685e-05
0.0399959
-1.01599e-05
0.0399955
-7.53204e-06
0.039995
-4.72497e-06
0.039995
-1.78303e-06
0.0399952
-3.56331e-07
0.0399993
-2.98209e-06
0.0400118
-1.45506e-06
0.0399994
1.31305e-06
0.0399954
4.15971e-06
0.0399953
6.83931e-06
0.0399957
1.03113e-05
0.0399953
1.25411e-05
0.0399965
1.4503e-05
0.0399971
1.61776e-05
0.0399976
1.75504e-05
0.0399981
1.8616e-05
0.0399987
1.93748e-05
0.0399992
1.98329e-05
0.0399998
2.00021e-05
0.0400003
1.98934e-05
0.0400008
1.7527e-05
0.0400012
1.69212e-05
0.0400016
1.60974e-05
0.040002
1.7074e-05
0.0400003
1.58729e-05
0.0400026
1.25145e-05
0.0400049
9.0185e-06
0.0400071
-2.59245e-06
0.0400193
1.68927e-06
0.0400054
1.8834e-06
0.0400056
2.00603e-06
0.0400077
4.07091e-06
0.0400078
6.09144e-06
0.0399919
4.07862e-06
0.0399939
2.04405e-06
0.0399919
0.039992
-3.53833e-06
0.0399949
-7.0547e-06
0.0399949
-1.05346e-05
0.0399948
-1.39591e-05
0.0399947
-1.53077e-05
0.0399945
-1.85595e-05
0.0399963
-1.56908e-05
0.040008
-1.66801e-05
0.0400116
-1.7495e-05
0.0400092
-2.01128e-05
0.0400088
-2.24938e-05
0.0400082
-2.86012e-05
0.0400276
-3.44267e-05
0.040013
-3.79243e-05
0.0400043
-3.90672e-05
0.0400015
-3.78155e-05
0.0399986
-3.61477e-05
0.0399977
-2.60417e-05
0.0399888
-1.94743e-05
0.0399878
-3.04072e-05
0.0400128
-3.48749e-05
0.0400018
-3.28653e-05
0.0399948
-3.03915e-05
0.0399939
-2.74754e-05
0.039993
-2.41563e-05
0.0399922
-2.04777e-05
0.0399913
-1.64952e-05
0.039991
-1.24741e-05
0.0399912
-9.48217e-06
0.0399963
-1.06829e-05
0.040013
-7.7018e-06
0.0399964
-3.47135e-06
0.0399912
1.01994e-06
0.0399908
5.1014e-06
0.0399916
7.71119e-06
0.0399927
1.11957e-05
0.0399931
1.43117e-05
0.0399939
1.70262e-05
0.0399949
2.13164e-05
0.0399939
2.31715e-05
0.0399968
2.45888e-05
0.0399978
2.55751e-05
0.0399988
2.61394e-05
0.0399997
2.6304e-05
0.0400006
2.60925e-05
0.0400014
2.55278e-05
0.0400022
2.46385e-05
0.0400029
2.14576e-05
0.0400035
2.20105e-05
0.0400021
2.03273e-05
0.0400066
8.43863e-06
0.040019
6.37242e-06
0.0400213
4.14427e-06
0.0400077
3.78297e-06
0.0400059
3.3122e-06
0.0400082
8.75377e-06
0.0400023
6.12466e-06
0.0399945
5.44443e-06
0.0399946
2.73024e-06
0.0399947
0.0399947
-4.83383e-06
0.0399998
-9.64183e-06
0.0399997
-1.44055e-05
0.0399996
-1.91007e-05
0.0399994
-2.37055e-05
0.0399991
-2.61896e-05
0.0399987
-2.25258e-05
0.0400043
-2.66833e-05
0.0400158
-3.06277e-05
0.0400132
-3.23198e-05
0.0400105
-3.37186e-05
0.0400096
-3.67715e-05
0.0400307
-4.74437e-05
0.0400237
-5.17054e-05
0.0400085
-5.34996e-05
0.0400033
-5.47846e-05
0.0399999
-4.95164e-05
0.0399924
-3.56783e-05
0.0399749
-4.11948e-05
0.0399933
-5.00415e-05
0.0400216
-5.22572e-05
0.040004
-4.98184e-05
0.0399924
-4.67407e-05
0.0399908
-4.30508e-05
0.0399893
-3.87873e-05
0.039988
-3.40115e-05
0.0399866
-2.87956e-05
0.0399858
-2.32224e-05
0.0399856
-1.89907e-05
0.0399921
-1.86801e-05
0.0400127
-1.41559e-05
0.0399919
-8.17235e-06
0.0399852
-2.54881e-06
0.0399852
3.21911e-06
0.0399858
9.24439e-06
0.0399866
1.40521e-05
0.0399883
1.83819e-05
0.0399896
2.2187e-05
0.0399911
2.34386e-05
0.0399926
2.6115e-05
0.0399942
2.8212e-05
0.0399957
3.17365e-05
0.0399953
3.27044e-05
0.0399987
3.31415e-05
0.0400002
3.30721e-05
0.0400015
3.25354e-05
0.0400027
3.15688e-05
0.0400038
3.02053e-05
0.0400049
2.649e-05
0.0400058
1.64584e-05
0.0400166
2.15788e-06
0.0400333
1.15983e-05
0.0400119
1.0828e-05
0.0400084
7.88041e-06
0.0400089
8.78455e-06
0.0400073
1.35684e-05
0.0399976
1.02576e-05
0.0399978
6.87654e-06
0.039998
3.44955e-06
0.0399981
0.0399981
-6.15543e-06
0.0400059
-1.02806e-05
0.0400038
-1.63563e-05
0.0400056
-2.23547e-05
0.0400054
-2.82475e-05
0.040005
-3.40024e-05
0.0400045
-3.5585e-05
0.0400059
-3.49583e-05
0.0400152
-4.00815e-05
0.0400183
-4.49054e-05
0.0400153
-4.7387e-05
0.0400121
-3.34699e-05
0.0400167
-5.50348e-05
0.0400452
-6.61223e-05
0.0400196
-7.06364e-05
0.0400078
-7.05188e-05
0.0399998
-6.37248e-05
0.0399856
-6.01934e-05
0.0399714
-6.3843e-05
0.0399969
-7.06565e-05
0.0400284
-7.06521e-05
0.040004
-6.78016e-05
0.0399895
-6.41163e-05
0.0399871
-5.96256e-05
0.0399848
-5.43767e-05
0.0399827
-4.84478e-05
0.0399806
-4.17251e-05
0.0399791
-3.5118e-05
0.039979
-2.9141e-05
0.0399861
-2.72134e-05
0.0400108
-2.10315e-05
0.0399857
-1.35808e-05
0.0399778
-5.9128e-06
0.0399775
1.04691e-06
0.0399789
6.78508e-06
0.0399809
1.30043e-05
0.039982
2.06232e-05
0.039982
2.55832e-05
0.0399861
2.98421e-05
0.0399883
3.33767e-05
0.0399906
3.6182e-05
0.0399929
3.62605e-05
0.0399952
3.76393e-05
0.0399974
4.03412e-05
0.0399975
4.04131e-05
0.0400014
3.98915e-05
0.0400032
3.88256e-05
0.0400049
3.72632e-05
0.0400064
3.3253e-05
0.0400098
2.08492e-05
0.040029
2.00998e-05
0.040034
1.90285e-05
0.040013
1.56927e-05
0.0400118
1.41329e-05
0.0400105
2.03888e-05
0.040001
1.64885e-05
0.0400015
1.24686e-05
0.0400018
8.36049e-06
0.0400021
4.19451e-06
0.0400023
0.0400023
-7.51723e-06
0.0400134
-1.50017e-05
0.0400113
-2.24319e-05
0.0400131
-2.9778e-05
0.0400127
-3.70084e-05
0.0400122
-4.4087e-05
0.0400116
-4.89742e-05
0.0400108
-4.76216e-05
0.0400138
-5.19917e-05
0.0400227
-5.60218e-05
0.0400193
-6.16552e-05
0.0400177
-6.28325e-05
0.0400179
-6.54243e-05
0.0400478
-8.34212e-05
0.0400376
-8.67517e-05
0.0400111
-8.33264e-05
0.0399964
-6.51125e-05
0.0399674
-8.19461e-05
0.0399882
-8.57996e-05
0.0400008
-9.06286e-05
0.0400332
-9.04421e-05
0.0400038
-8.71988e-05
0.0399863
-8.2905e-05
0.0399828
-7.75866e-05
0.0399795
-7.13145e-05
0.0399764
-6.39604e-05
0.0399733
-5.62385e-05
0.0399713
-4.76779e-05
0.0399704
-4.02337e-05
0.0399787
-3.65511e-05
0.0400071
-2.85638e-05
0.0399777
-1.91024e-05
0.0399683
-1.00471e-05
0.0399685
-9.60617e-07
0.0399698
8.21308e-06
0.0399717
1.59512e-05
0.0399743
2.09538e-05
0.039977
2.71439e-05
0.0399799
3.24713e-05
0.039983
3.89069e-05
0.0399842
4.24459e-05
0.0399894
4.50986e-05
0.0399925
4.68922e-05
0.0399956
4.58668e-05
0.0399985
4.80631e-05
0.0399992
4.75452e-05
0.0400038
4.63643e-05
0.0400061
4.45817e-05
0.0400082
3.02623e-05
0.0400241
1.14808e-05
0.0400478
2.62427e-05
0.0400193
2.46317e-05
0.0400146
2.27081e-05
0.0400137
2.65152e-05
0.0400066
2.2094e-05
0.0400054
1.74884e-05
0.0400061
1.2739e-05
0.0400066
7.88343e-06
0.0400069
4.95904e-06
0.0400052
0.0400073
-6.92491e-06
0.0400204
-1.78182e-05
0.0400222
-2.66536e-05
0.0400219
-3.33997e-05
0.0400195
-4.20264e-05
0.0400208
-5.04927e-05
0.04002
-5.87522e-05
0.040019
-6.27623e-05
0.0400178
-6.44606e-05
0.0400244
-7.17897e-05
0.0400266
-7.86722e-05
0.0400246
-8.10569e-05
0.0400203
-6.28377e-05
0.0400296
-8.97886e-05
0.0400646
-0.000108045
0.0400294
-0.00010742
0.0399957
-0.000101858
0.0399619
-0.000105179
0.0399916
-0.000107342
0.040003
-0.000112261
0.0400382
-0.00011193
0.0400035
-0.000108327
0.0399827
-0.000103418
0.0399779
-9.72574e-05
0.0399733
-8.98921e-05
0.0399691
-8.14206e-05
0.0399648
-7.19835e-05
0.0399619
-6.17397e-05
0.0399602
-5.26653e-05
0.0399696
-4.68469e-05
0.0400013
-3.688e-05
0.0399678
-2.56217e-05
0.0399571
-1.44047e-05
0.0399573
-3.62722e-06
0.039959
7.53068e-06
0.0399606
1.6917e-05
0.0399649
2.54108e-05
0.0399685
3.29193e-05
0.0399724
3.9383e-05
0.0399765
4.27703e-05
0.0399808
4.90747e-05
0.0399831
5.23178e-05
0.0399893
5.45267e-05
0.0399934
5.5759e-05
0.0399973
5.60749e-05
0.0399989
5.55356e-05
0.0400043
5.42121e-05
0.0400074
4.81864e-05
0.0400142
3.3526e-05
0.0400388
3.23133e-05
0.040049
3.25774e-05
0.040019
3.04106e-05
0.0400168
3.58742e-05
0.0400082
3.30219e-05
0.0400095
2.79034e-05
0.0400106
2.25706e-05
0.0400114
1.70706e-05
0.0400121
1.14471e-05
0.0400126
5.74285e-06
0.0400109
0.040013
-1.03879e-05
0.0400308
-2.07399e-05
0.0400325
-2.9034e-05
0.0400302
-4.12451e-05
0.0400317
-4.93307e-05
0.0400289
-5.92558e-05
0.04003
-6.89716e-05
0.0400288
-7.84241e-05
0.0400273
-7.95397e-05
0.0400255
-8.62687e-05
0.0400334
-9.45237e-05
0.0400329
-0.000102206
0.040028
-0.000103228
0.0400306
-0.000117377
0.0400787
-0.000124685
0.0400367
-0.000119016
0.0399901
-0.00012622
0.0399691
-0.000130154
0.0399955
-0.000130722
0.0400035
-0.000135807
0.0400433
-0.000135417
0.0400031
-0.000131475
0.0399787
-0.000125963
0.0399724
-0.00011891
0.0399663
-0.000110377
0.0399605
-0.000100492
0.0399549
-8.93948e-05
0.0399508
-7.74789e-05
0.0399483
-6.59765e-05
0.0399581
-5.82147e-05
0.0399935
-4.60366e-05
0.0399556
-3.25612e-05
0.0399436
-1.89663e-05
0.0399437
-6.09753e-06
0.0399461
4.82497e-06
0.0399497
1.60146e-05
0.0399537
2.61245e-05
0.0399584
3.70461e-05
0.0399615
4.47158e-05
0.0399689
5.11019e-05
0.0399744
5.41965e-05
0.03998
6.00315e-05
0.0399835
6.2658e-05
0.0399907
6.41328e-05
0.0399958
6.25337e-05
0.0400005
6.39401e-05
0.0400029
6.04514e-05
0.0400109
4.41446e-05
0.0400305
2.11477e-05
0.0400618
4.34355e-05
0.0400267
4.1155e-05
0.0400213
4.64002e-05
0.0400115
4.12157e-05
0.0400134
3.56717e-05
0.040015
2.98285e-05
0.0400164
2.37426e-05
0.0400175
1.9469e-05
0.0400163
1.30544e-05
0.040019
4.54683e-06
0.0400194
0.0400176
-1.19025e-05
0.0400427
-2.17665e-05
0.0400424
-3.55839e-05
0.040044
-4.53146e-05
0.0400414
-5.89345e-05
0.0400425
-7.03946e-05
0.0400414
-7.96457e-05
0.040038
-9.06358e-05
0.0400383
-0.000101292
0.0400361
-0.000101522
0.0400336
-0.000109263
0.0400406
-0.000120396
0.0400391
-0.000126799
0.040037
-0.000124307
0.0400762
-0.000134829
0.0400472
-0.000120315
0.0399755
-0.000146412
0.0399952
-0.000153076
0.0400021
-0.000158181
0.0400086
-0.000159555
0.0400446
-0.000159164
0.0400027
-0.000156923
0.0399765
-0.000150815
0.0399663
-0.000142826
0.0399583
-0.000133056
0.0399508
-0.000121602
0.0399435
-0.000108468
0.0399377
-9.44816e-05
0.0399343
-8.08982e-05
0.0399445
-7.0718e-05
0.0399833
-5.5856e-05
0.0399407
-3.98909e-05
0.0399276
-2.42556e-05
0.039928
-8.85699e-06
0.0399307
6.23664e-06
0.0399346
1.94041e-05
0.0399406
3.12715e-05
0.0399465
3.97177e-05
0.039953
5.0663e-05
0.0399579
5.80845e-05
0.039967
6.3992e-05
0.0399741
6.64197e-05
0.039981
7.14288e-05
0.0399857
7.31121e-05
0.0399941
7.35598e-05
0.0400001
7.08755e-05
0.0400056
6.71546e-05
0.0400146
5.45178e-05
0.0400432
5.10791e-05
0.0400652
5.28664e-05
0.0400249
5.8027e-05
0.0400161
5.26318e-05
0.0400169
4.67624e-05
0.0400193
4.04935e-05
0.0400213
3.38927e-05
0.040023
2.9025e-05
0.0400224
1.99447e-05
0.0400254
1.47134e-05
0.0400242
7.37907e-06
0.0400267
0.040025
-1.34686e-05
0.0400561
-2.69025e-05
0.0400558
-3.82896e-05
0.0400554
-5.36122e-05
0.0400567
-6.48217e-05
0.0400538
-7.78983e-05
0.0400545
-9.07781e-05
0.0400509
-0.000103406
0.0400509
-0.000115707
0.0400484
-0.000127594
0.0400455
-0.000128954
0.040042
-0.000137688
0.0400479
-0.000145709
0.040045
-0.000118827
0.0400493
-0.000150594
0.040079
-0.000165334
0.0399903
-0.000176547
0.0400064
-0.000182157
0.0400078
-0.000181962
0.0400084
-0.000177776
0.0400404
-0.000187463
0.0400124
-0.000184987
0.039974
-0.000178266
0.0399596
-0.00016932
0.0399493
-0.00015818
0.0399396
-0.000145023
0.0399303
-0.000130034
0.0399227
-0.000113691
0.039918
-9.73337e-05
0.0399282
-8.44109e-05
0.0399704
-6.69244e-05
0.0399232
-4.81282e-05
0.0399088
-2.93416e-05
0.0399092
-1.17273e-05
0.0399131
3.9879e-06
0.0399188
1.93352e-05
0.0399252
3.51111e-05
0.0399307
4.71855e-05
0.039941
5.54813e-05
0.0399496
6.59697e-05
0.0399565
7.26819e-05
0.0399674
7.76766e-05
0.039976
8.10444e-05
0.0399824
8.28844e-05
0.0399923
8.33178e-05
0.0399996
7.84717e-05
0.0400104
5.64772e-05
0.0400366
4.14706e-05
0.0400582
6.35012e-05
0.0400432
6.87209e-05
0.0400197
6.52428e-05
0.0400196
5.91594e-05
0.040023
5.25578e-05
0.0400259
4.75223e-05
0.0400264
4.01219e-05
0.0400304
3.04322e-05
0.040032
2.45175e-05
0.0400313
1.44318e-05
0.0400343
8.24061e-06
0.0400329
0.0400332
-1.50807e-05
0.0400712
-3.01307e-05
0.0400709
-4.51485e-05
0.0400704
-5.81089e-05
0.0400697
-7.49947e-05
0.0400706
-8.77543e-05
0.0400673
-0.000104354
0.0400675
-0.000116712
0.0400633
-0.000130782
0.0400625
-0.000144446
0.0400592
-0.000157602
0.0400551
-0.000160098
0.0400504
-0.000169816
0.0400548
-0.000172627
0.0400521
-0.000174107
0.0400804
-0.000198266
0.0400144
-0.000206836
0.040015
-0.000209599
0.0400105
-0.000206333
0.0400052
-0.000178836
0.0400129
-0.000204614
0.0400382
-0.000213956
0.0399834
-0.000208667
0.0399543
-0.00019869
0.0399394
-0.000186086
0.039927
-0.00017081
0.039915
-0.000153695
0.0399056
-0.000134497
0.0398988
-0.000115388
0.0399091
-9.9304e-05
0.0399543
-7.85793e-05
0.0399025
-5.63559e-05
0.0398866
-3.48281e-05
0.0398877
-1.38616e-05
0.0398921
6.35615e-06
0.0398986
2.41108e-05
0.0399075
3.79729e-05
0.0399169
5.37853e-05
0.0399252
6.54832e-05
0.0399379
7.30603e-05
0.0399489
8.25576e-05
0.0399579
8.8072e-05
0.0399705
8.97199e-05
0.0399807
9.36358e-05
0.0399883
9.19735e-05
0.0400013
7.88799e-05
0.0400235
5.25514e-05
0.0400629
6.70171e-05
0.0400437
8.24695e-05
0.0400277
7.90518e-05
0.0400231
7.28728e-05
0.0400258
6.6035e-05
0.0400298
5.86474e-05
0.0400333
5.07896e-05
0.0400342
4.25458e-05
0.0400386
3.59943e-05
0.0400386
2.71991e-05
0.0400401
1.82264e-05
0.0400433
9.13793e-06
0.040042
0.0400423
-1.67308e-05
0.0400879
-3.34376e-05
0.0400876
-5.01286e-05
0.0400871
-6.67896e-05
0.0400863
-8.13945e-05
0.0400852
-9.79209e-05
0.0400838
-0.00011432
0.0400839
-0.000130532
0.0400795
-0.000146481
0.0400785
-0.000162066
0.0400747
-0.000175154
0.0400682
-0.000189634
0.0400648
-0.000195295
0.0400604
-0.000204054
0.0400609
-0.000181647
0.040058
-0.00021735
0.0400501
-0.00023544
0.040033
-0.000243564
0.0400186
-0.000245422
0.040007
-0.00023667
0.0400042
-0.000248886
0.0400504
-0.000250197
0.0399847
-0.000242365
0.0399464
-0.000231305
0.0399283
-0.000217104
0.0399128
-0.000199877
0.0398978
-0.000179947
0.0398856
-0.000157869
0.0398767
-0.000135152
0.0398863
-0.000115422
0.0399346
-9.0951e-05
0.039878
-6.51909e-05
0.0398608
-3.96698e-05
0.0398622
-1.55427e-05
0.039868
5.71705e-06
0.0398774
2.81276e-05
0.039885
4.62416e-05
0.0398988
5.99018e-05
0.0399115
7.50373e-05
0.0399228
8.56823e-05
0.0399383
9.19186e-05
0.0399516
9.98691e-05
0.0399626
0.000103705
0.0399769
0.000105587
0.0399865
9.97075e-05
0.0400072
8.62619e-05
0.040037
8.34078e-05
0.0400658
9.73019e-05
0.0400298
9.40978e-05
0.0400309
8.79497e-05
0.0400293
8.09854e-05
0.0400328
7.33252e-05
0.0400375
6.70797e-05
0.0400395
5.63375e-05
0.040045
4.91961e-05
0.0400458
3.77247e-05
0.0400501
2.80042e-05
0.0400499
2.01021e-05
0.0400512
1.00764e-05
0.040052
0.0400524
-1.84075e-05
0.0401064
-3.47927e-05
0.040104
-5.31937e-05
0.0401055
-7.15949e-05
0.0401047
-8.99854e-05
0.0401036
-0.000108342
0.0401021
-0.000126628
0.0401022
-0.000144786
0.0400976
-0.000162743
0.0400964
-0.000178391
0.0400904
-0.000197617
0.0400875
-0.00021425
0.0400815
-0.000228093
0.0400743
-0.000232937
0.0400657
-0.000242595
0.0400677
-0.000258437
0.040066
-0.000270495
0.0400451
-0.000278324
0.0400265
-0.000283547
0.0400123
-0.000285827
0.0400065
-0.000290694
0.0400552
-0.000288114
0.0399821
-0.000279799
0.0399381
-0.000267643
0.0399162
-0.000251659
0.0398968
-0.000232049
0.0398782
-0.000208884
0.0398625
-0.000183276
0.0398511
-0.000156773
0.0398598
-0.000132782
0.0399106
-0.000103922
0.0398492
-7.36149e-05
0.0398305
-4.41403e-05
0.0398327
-1.61743e-05
0.0398401
1.05038e-05
0.0398507
3.18692e-05
0.0398637
5.44111e-05
0.0398762
7.19976e-05
0.0398939
8.45942e-05
0.0399102
9.82545e-05
0.0399246
0.000107134
0.0399428
0.000113401
0.0399563
0.000117273
0.039973
0.000112979
0.0399907
8.87651e-05
0.0400314
7.28522e-05
0.0400529
0.000105325
0.0400333
0.00010847
0.0400267
0.000102479
0.0400369
9.74862e-05
0.0400342
8.96452e-05
0.0400406
8.10727e-05
0.0400461
7.18899e-05
0.0400487
6.21985e-05
0.0400546
5.20913e-05
0.0400559
4.36542e-05
0.0400585
3.29562e-05
0.0400606
2.2069e-05
0.0400621
1.10606e-05
0.040063
0.0400635
-2.00973e-05
0.0401265
-4.01923e-05
0.0401241
-6.03219e-05
0.0401256
-8.04937e-05
0.0401249
-0.000100707
0.0401239
-0.000120951
0.0401224
-0.000139192
0.0401204
-0.000159393
0.0401178
-0.000177464
0.0401145
-0.000199351
0.0401123
-0.000216869
0.040105
-0.000235867
0.0401005
-0.000254163
0.0400926
-0.000271463
0.040083
-0.000279463
0.0400757
-0.000293774
0.0400803
-0.00030611
0.0400574
-0.00031604
0.0400364
-0.00032306
0.0400193
-0.000326701
0.0400101
-0.00033049
0.040059
-0.000330188
0.0399818
-0.000321497
0.0399294
-0.000308216
0.0399029
-0.000290327
0.0398789
-0.000267977
0.0398558
-0.000241564
0.039836
-0.000211593
0.0398211
-0.000180434
0.0398287
-0.000151387
0.0398815
-0.000117356
0.0398151
-8.21562e-05
0.0397953
-4.78354e-05
0.0397984
-1.54576e-05
0.0398077
1.52867e-05
0.0398199
4.18973e-05
0.0398371
6.30623e-05
0.0398551
8.46295e-05
0.0398723
0.000100638
0.0398942
0.000113222
0.039912
0.000122577
0.0399334
0.000128983
0.0399499
0.000130703
0.0399713
0.000114055
0.0400074
8.53601e-05
0.0400601
0.000112682
0.0400256
0.000124335
0.0400217
0.000118623
0.0400324
0.000115708
0.0400398
0.000105744
0.0400442
9.89039e-05
0.0400474
8.93259e-05
0.0400556
7.91211e-05
0.0400589
7.04046e-05
0.0400634
5.72611e-05
0.040069
4.57868e-05
0.04007
3.40543e-05
0.0400723
2.4138e-05
0.040072
1.20945e-05
0.0400751
0.0400756
-1.97742e-05
0.0401462
-4.35797e-05
0.0401479
-6.54448e-05
0.0401475
-8.53935e-05
0.0401449
-0.000107458
0.0401459
-0.000129626
0.0401446
-0.000151905
0.0401427
-0.000174238
0.0401402
-0.000196571
0.0401368
-0.000216806
0.0401325
-0.000240828
0.040129
-0.000262445
0.0401221
-0.000281432
0.0401115
-0.000301502
0.0401031
-0.000318345
0.0400925
-0.000329454
0.0400914
-0.000346504
0.0400745
-0.000356947
0.0400468
-0.000366206
0.0400285
-0.000369708
0.0400136
-0.000358842
0.0400482
-0.000373027
0.039996
-0.000368101
0.0399245
-0.000353712
0.0398885
-0.000333748
0.039859
-0.000308347
0.0398304
-0.000277886
0.0398056
-0.000243269
0.0397865
-0.000206336
0.0397917
-0.000171297
0.0398465
-0.000131103
0.0397749
-8.98503e-05
0.0397541
-4.96528e-05
0.0397582
-1.21677e-05
0.0397702
2.07671e-05
0.039787
5.29449e-05
0.0398049
7.88675e-05
0.0398291
0.000100435
0.0398508
0.000117762
0.0398769
0.000131072
0.0398987
0.000140691
0.0399238
0.000144975
0.0399456
0.000144289
0.039972
0.000129027
0.0400227
0.000137496
0.0400516
0.000141882
0.0400212
0.000138604
0.040025
0.000129899
0.0400411
0.000125855
0.0400439
0.000118782
0.0400513
0.000108822
0.0400574
9.81199e-05
0.0400663
8.67981e-05
0.0400702
7.49617e-05
0.0400752
6.47232e-05
0.0400793
5.21484e-05
0.0400826
3.93211e-05
0.0400851
2.43058e-05
0.040087
1.31804e-05
0.0400862
0.0400887
-2.34421e-05
0.0401697
-4.69223e-05
0.0401714
-6.84995e-05
0.0401691
-9.42452e-05
0.0401706
-0.00011616
0.0401678
-0.000140292
0.0401687
-0.000164638
0.040167
-0.000189179
0.0401647
-0.000213868
0.0401615
-0.000238611
0.0401573
-0.000261314
0.0401517
-0.000285781
0.0401465
-0.000309764
0.0401355
-0.000333007
0.0401264
-0.000355059
0.0401146
-0.000375487
0.0401118
-0.000385749
0.0400848
-0.000403269
0.0400644
-0.000411357
0.0400366
-0.000411373
0.0400136
-0.00037257
0.0400094
-0.000407373
0.0400308
-0.000418403
0.0399355
-0.000404959
0.039875
-0.00038278
0.0398368
-0.000353944
0.0398016
-0.000318823
0.0397705
-0.000278206
0.0397459
-0.000234831
0.0397484
-0.000192543
0.0398042
-0.00014494
0.0397273
-9.62464e-05
0.0397054
-4.95304e-05
0.0397115
-6.10557e-06
0.0397268
3.37904e-05
0.0397471
6.59044e-05
0.0397728
9.66873e-05
0.0397983
0.000118185
0.0398293
0.0001386
0.0398565
0.00015035
0.039887
0.000161901
0.0399122
0.000161743
0.0399458
0.000132414
0.0400013
0.00012229
0.0400328
0.000155513
0.0400184
0.000162716
0.040014
0.000156197
0.0400315
0.000148229
0.0400491
0.000138936
0.0400532
0.000130611
0.0400596
0.000117409
0.0400706
0.000107476
0.0400763
9.49362e-05
0.0400828
8.19025e-05
0.0400882
6.84718e-05
0.0400927
5.47272e-05
0.0400963
4.27482e-05
0.0400971
2.85899e-05
0.0401011
1.43193e-05
0.0401005
0.0401031
-2.50553e-05
0.0401947
-5.01739e-05
0.0401965
-7.54432e-05
0.0401944
-9.89233e-05
0.0401941
-0.000126702
0.0401956
-0.000150786
0.0401928
-0.000177234
0.0401935
-0.000204039
0.0401915
-0.000231177
0.0401886
-0.000258585
0.0401847
-0.000286154
0.0401793
-0.000311708
0.0401721
-0.000341037
0.0401649
-0.000365789
0.0401511
-0.000391568
0.0401404
-0.000415806
0.0401361
-0.000437941
0.0401069
-0.000449214
0.0400756
-0.000464828
0.0400522
-0.000473856
0.0400227
-0.000465408
0.0400009
-0.000477926
0.0400433
-0.00047938
0.039937
-0.000463082
0.0398587
-0.000438583
0.0398123
-0.000405832
0.0397689
-0.000365265
0.0397299
-0.000317987
0.0396986
-0.000266352
0.0396967
-0.000215229
0.0397531
-0.000158588
0.0396707
-0.000101157
0.039648
-4.66095e-05
0.0396569
3.96106e-06
0.0396762
4.94991e-05
0.0397016
8.78476e-05
0.0397344
0.000119535
0.0397667
0.000144715
0.0398041
0.000163875
0.0398373
0.000177644
0.0398732
0.000182685
0.0399072
0.000169673
0.0399588
0.000139324
0.0400317
0.000169685
0.0400024
0.000185464
0.0400026
0.000181226
0.0400182
0.000171255
0.0400414
0.000163764
0.0400566
0.000155039
0.0400619
0.000141287
0.0400734
0.000130695
0.0400812
0.000117401
0.0400896
0.000103537
0.0400966
8.9212e-05
0.0401026
7.65239e-05
0.0401054
6.15404e-05
0.0401113
4.4331e-05
0.0401143
3.09748e-05
0.0401145
1.35037e-05
0.0401179
0.0401166
-2.65944e-05
0.0402213
-5.12694e-05
0.0402212
-8.01712e-05
0.0402233
-0.000107359
0.0402213
-0.000132922
0.0402212
-0.000162967
0.0402228
-0.000189496
0.04022
-0.000218607
0.0402206
-0.000246252
0.0402163
-0.000276431
0.0402148
-0.000307032
0.0402099
-0.000337954
0.040203
-0.000368927
0.0401958
-0.000399641
0.0401818
-0.000429656
0.0401704
-0.000456372
0.0401628
-0.000483111
0.0401336
-0.000509045
0.0401016
-0.000523038
0.0400662
-0.000536083
0.0400357
-0.000540824
0.0400056
-0.000527935
0.0400304
-0.00054026
0.0399493
-0.000529338
0.0398478
-0.000502524
0.0397855
-0.000465503
0.0397318
-0.000418581
0.039683
-0.000362776
0.0396428
-0.000301477
0.0396354
-0.000239497
0.0396911
-0.000171719
0.0396029
-0.00010378
0.03958
-3.91722e-05
0.0395923
1.95726e-05
0.0396174
6.934e-05
0.0396518
0.000114219
0.0396895
0.000146657
0.0397342
0.000175103
0.0397756
0.000190439
0.039822
0.000197616
0.039866
0.000199509
0.0399053
0.000193053
0.0399652
0.000202854
0.0400219
0.000211437
0.0399938
0.000209509
0.0400045
0.000197512
0.0400302
0.000185832
0.0400531
0.000180551
0.0400618
0.000168139
0.0400743
0.000156794
0.0400847
0.000142658
0.0400953
0.000127882
0.0401043
0.000112583
0.0401119
9.88877e-05
0.0401163
8.08465e-05
0.0401234
6.6563e-05
0.0401256
5.00801e-05
0.0401308
3.34599e-05
0.0401311
1.67499e-05
0.0401347
0.0401333
-2.80308e-05
0.0402494
-5.61853e-05
0.0402493
-8.25892e-05
0.0402497
-0.000111391
0.0402501
-0.000142711
0.0402525
-0.000170616
0.0402507
-0.000201237
0.0402506
-0.000232635
0.040252
-0.00026485
0.0402485
-0.000297891
0.0402479
-0.000331708
0.0402437
-0.000366192
0.0402375
-0.000399132
0.0402288
-0.000434221
0.0402169
-0.000467057
0.0402032
-0.000499064
0.0401948
-0.000533211
0.0401678
-0.000562721
0.0401311
-0.000588393
0.0400919
-0.000600612
0.0400479
-0.000604134
0.0400092
-0.000557186
0.0399834
-0.000596588
0.0399887
-0.000603453
0.0398547
-0.000576452
0.0397585
-0.000534779
0.0396902
-0.000480253
0.0396284
-0.00041481
0.0395773
-0.000341069
0.0395617
-0.000265458
0.0396155
-0.000183805
0.0395213
-0.000102446
0.0394987
-2.63017e-05
0.0395162
4.19152e-05
0.0395492
0.000101134
0.0395926
0.000148756
0.0396419
0.000185545
0.0396974
0.000208507
0.0397527
0.000213206
0.0398173
0.000201005
0.0398782
0.000187109
0.0399192
0.000190455
0.0399619
0.000235634
0.0399767
0.000239863
0.0399896
0.000231696
0.0400127
0.000219551
0.0400423
0.00020971
0.040063
0.000198488
0.0400731
0.000186222
0.0400866
0.000171093
0.0400998
0.000155268
0.0401111
0.000138886
0.0401207
0.000124067
0.0401268
0.000104884
0.0401354
8.94412e-05
0.0401389
6.97735e-05
0.0401452
5.39639e-05
0.0401466
3.40274e-05
0.0401511
1.80352e-05
0.0401507
0.0401514
-2.93324e-05
0.0402787
-5.88246e-05
0.0402788
-8.86355e-05
0.0402795
-0.000118936
0.0402804
-0.000147852
0.0402814
-0.000179561
0.0402824
-0.000212182
0.0402833
-0.000245822
0.0402857
-0.000280606
0.0402833
-0.000316557
0.0402838
-0.000351679
0.0402788
-0.000389925
0.0402758
-0.000429191
0.040268
-0.000469172
0.0402569
-0.00050751
0.0402415
-0.000539666
0.040227
-0.000582113
0.0402102
-0.000622442
0.0401714
-0.000655045
0.0401245
-0.00068213
0.040075
-0.000691581
0.0400186
-0.000689184
0.039981
-0.000699689
0.0399992
-0.000690992
0.039846
-0.000662524
0.03973
-0.00061627
0.0396439
-0.000553177
0.0395653
-0.000475035
0.0394992
-0.000386151
0.0394728
-0.000292821
0.0395222
-0.000193754
0.0394222
-9.6223e-05
0.0394011
-5.49141e-06
0.0394255
7.44199e-05
0.0394693
0.000141731
0.0395253
0.000192273
0.0395914
0.000228173
0.0396615
0.000238344
0.0397425
0.000240972
0.0398146
0.000251989
0.0398672
0.000241186
0.03993
0.000261253
0.0399418
0.000275467
0.0399625
0.000270889
0.0399942
0.000256034
0.0400276
0.000239374
0.040059
0.000231019
0.0400713
0.000217551
0.0400865
0.000201199
0.0401029
0.000184116
0.0401169
0.000168467
0.0401268
0.000150353
0.0401388
0.000131905
0.0401452
0.000113179
0.0401542
9.42468e-05
0.0401578
7.7168e-05
0.0401623
5.59588e-05
0.0401678
3.8688e-05
0.0401683
1.93584e-05
0.04017
0.0401707
-3.04659e-05
0.0403091
-6.11298e-05
0.0403095
-9.21812e-05
0.0403105
-0.000121797
0.04031
-0.0001542
0.0403138
-0.000187563
0.0403158
-0.000224082
0.0403198
-0.000257877
0.0403194
-0.000295148
0.0403206
-0.000331987
0.0403207
-0.000374521
0.0403213
-0.000414704
0.0403159
-0.000458495
0.0403118
-0.000503753
0.0403021
-0.000550072
0.0402879
-0.000592936
0.0402698
-0.000641176
0.0402585
-0.000685819
0.0402161
-0.00072732
0.040166
-0.000763298
0.040111
-0.000790982
0.0400463
-0.000797244
0.0399873
-0.000792488
0.0399945
-0.000793146
0.0398466
-0.000764717
0.0397016
-0.000713686
0.0395929
-0.000641074
0.0394927
-0.000547853
0.039406
-0.000437824
0.0393628
-0.00032132
0.0394057
-0.000201989
0.0393029
-8.35351e-05
0.0392827
2.47364e-05
0.0393172
0.000118177
0.0393759
0.000193131
0.0394503
0.000250745
0.0395338
0.000270706
0.0396416
0.000275874
0.0397373
0.000292463
0.039798
0.000309062
0.0398506
0.000315822
0.0399232
0.000319853
0.0399378
0.000312452
0.0399699
0.000300413
0.0400062
0.000284323
0.0400436
0.000270588
0.0400727
0.000255562
0.0400863
0.000239632
0.0401025
0.000220985
0.0401216
0.000201785
0.0401361
0.000182165
0.0401464
0.000162228
0.0401588
0.000142057
0.0401654
0.00012372
0.0401725
0.000101239
0.0401803
8.06784e-05
0.0401829
6.20617e-05
0.0401864
4.14006e-05
0.040189
2.0711e-05
0.0401907
0.0401914
-3.13958e-05
0.0403405
-6.10115e-05
0.0403391
-9.30985e-05
0.0403426
-0.000127885
0.0403448
-0.000161568
0.0403475