/*--------------------------------*- C++ -*----------------------------------*\
  =========                 |
  \\      /  F ield         | OpenFOAM: The Open Source CFD Toolbox
   \\    /   O peration     | Website:  https://openfoam.org
    \\  /    A nd           | Version:  12
     \\/     M anipulation  |
\*---------------------------------------------------------------------------*/
FoamFile
{
    format      ascii;
    class       volVectorField;
    location    "180";
    object      U;
}
// * * * * * * * * * * * * * * * * * * * * * * * * * * * * * * * * * * * * * //

dimensions      [0 1 -1 0 0 0 0];

internalField   nonuniform List<vector> 
16227
(
(2 -7.85302e-06 -9.88157e-23)
(2 -2.34561e-05 9.92659e-23)
(2 -3.88727e-05 -9.92672e-23)
(2 -5.40254e-05 -9.9886e-23)
(2 -6.87962e-05 9.98873e-23)
(2 -8.30618e-05 1.00878e-22)
(2 -9.67078e-05 6.50242e-25)
(2 -0.000109601 -2.03746e-22)
(2 -0.000121598 3.08356e-22)
(2 -0.000132542 -2.0611e-22)
(2 -0.000142267 0)
(2 -0.000150613 2.1083e-22)
(2 -0.000157462 0)
(2 -0.000162684 0)
(2 -0.000166093 0)
(2 -0.000167553 0)
(2 -0.000166936 0)
(2 -0.000164134 0)
(2 -0.000159064 0)
(2 -0.000151677 0)
(2 -0.000141969 -2.32156e-22)
(2 -0.000129985 -1.95182e-24)
(2 -0.00011581 2.34106e-22)
(2 -9.95775e-05 0)
(2 -8.14737e-05 -2.38867e-22)
(2 -6.17366e-05 2.38865e-22)
(2 -4.06521e-05 0)
(2 -1.85374e-05 1.20682e-22)
(2 4.24782e-06 0)
(2 2.73134e-05 0)
(2 5.0251e-05 0)
(2 7.26776e-05 0)
(2 9.4229e-05 0)
(2 0.00011455 2.39242e-22)
(2 0.000133327 -1.30583e-24)
(2 0.000150289 -2.37942e-22)
(2 0.000165217 0)
(2 0.000177945 2.32793e-22)
(2 0.000188359 -2.04086e-24)
(2 0.000196397 -2.30753e-22)
(2 0.000202047 0)
(2 0.000205343 0)
(2 0.000206355 0)
(2 0.000205187 0)
(2 0.000201966 0)
(2 0.00019684 0)
(2 0.00018996 0)
(2 0.000181495 0)
(2 0.000171602 0)
(2 0.000160433 0)
(2 0.000148147 0)
(2 0.00013489 0)
(2 0.000120811 0)
(2 0.000106025 0)
(2 9.06507e-05 -9.98296e-23)
(2 7.47858e-05 9.98338e-23)
(2 5.85387e-05 0)
(2 4.20134e-05 0)
(2 2.52957e-05 0)
(2 8.44552e-06 9.84201e-23)
(2.00004 -3.37682e-05 2.10713e-25)
(2.00004 -0.000100941 0)
(2.00004 -0.000167544 0)
(2.00004 -0.000233283 0)
(2.00004 -0.00029773 -1.6897e-22)
(2.00003 -0.000360502 0)
(2.00003 -0.000421176 0)
(2.00003 -0.0004793 -5.17514e-22)
(2.00003 -0.000534348 3.4554e-22)
(2.00003 -0.000585777 -7.02815e-22)
(2.00002 -0.000632973 2.82725e-21)
(2.00002 -0.000675311 -1.77904e-21)
(2.00002 -0.000712329 8.96288e-22)
(2.00001 -0.000743473 0)
(2.00001 -0.000768032 0)
(2 -0.000785438 0)
(2 -0.000795134 0)
(1.99999 -0.000796635 0)
(1.99999 -0.000789525 0)
(1.99998 -0.000773498 0)
(1.99998 -0.000748399 0)
(1.99997 -0.000714269 0)
(1.99997 -0.000671297 0)
(1.99996 -0.000619827 0)
(1.99996 -0.000560429 0)
(1.99995 -0.000493872 -4.06158e-22)
(1.99995 -0.00042112 4.06172e-22)
(1.99995 -0.000343281 -2.04084e-22)
(1.99995 -0.000261641 0)
(1.99995 -0.000177596 0)
(1.99995 -9.25942e-05 0)
(1.99995 -8.08316e-06 0)
(1.99995 7.45324e-05 0)
(1.99995 0.00015389 0)
(1.99996 0.000228754 0)
(1.99996 0.000298037 -4.00048e-22)
(1.99997 0.00036082 2.9511e-24)
(1.99997 0.000416366 3.24323e-24)
(1.99998 0.000464141 3.48727e-24)
(1.99998 0.000503805 3.90357e-22)
(1.99999 0.000535193 3.82841e-22)
(1.99999 0.000558313 -3.82835e-22)
(2 0.000573318 0)
(2 0.000580498 0)
(2.00001 0.00058022 0)
(2.00001 0.000572939 0)
(2.00002 0.000559166 0)
(2.00002 0.000539446 0)
(2.00002 0.000514331 0)
(2.00003 0.000484369 0)
(2.00003 0.000450111 3.46427e-22)
(2.00003 0.000412065 -6.91196e-22)
(2.00003 0.000370771 -6.82583e-22)
(2.00003 0.000326697 6.82603e-22)
(2.00004 0.000280234 -6.74767e-22)
(2.00004 0.000231811 1.01064e-21)
(2.00004 0.000181848 -3.36006e-22)
(2.00004 0.000130715 1.6703e-22)
(2.00004 7.87802e-05 -1.67034e-22)
(2.00004 2.63056e-05 -1.96954e-25)
(2.00013 -6.45867e-05 1.66632e-22)
(2.00013 -0.000193219 0)
(2.00013 -0.000320917 0)
(2.00013 -0.000447172 0)
(2.00012 -0.000571264 1.68947e-22)
(2.00012 -0.000692513 -3.40375e-22)
(2.00012 -0.000810227 -2.23511e-24)
(2.00011 -0.000923593 5.14422e-22)
(2.0001 -0.0010317 1.72994e-22)
(2.0001 -0.00113362 7.01915e-22)
(2.00009 -0.00122829 -6.98841e-22)
(2.00008 -0.00131444 -1.42038e-21)
(2.00007 -0.00139126 1.79485e-22)
(2.00005 -0.00145776 0)
(2.00004 -0.00151257 1.83593e-22)
(2.00003 -0.00155465 0)
(2.00001 -0.00158291 0)
(1.99999 -0.00159639 0)
(1.99998 -0.00159421 -7.70889e-22)
(1.99996 -0.0015757 7.70824e-22)
(1.99994 -0.00154044 -3.92897e-22)
(1.99992 -0.0014884 3.92909e-22)
(1.99991 -0.00141978 0)
(1.99989 -0.00133505 -4.02285e-22)
(1.99988 -0.00123511 -2.42086e-24)
(1.99986 -0.00112126 4.04754e-22)
(1.99985 -0.000995115 0)
(1.99984 -0.000858638 0)
(1.99984 -0.000714051 0)
(1.99983 -0.000563821 0)
(1.99983 -0.000410543 2.04317e-22)
(1.99984 -0.000256914 -4.09704e-22)
(1.99984 -0.000105505 0)
(1.99985 4.11757e-05 0)
(1.99986 0.000180829 4.033e-22)
(1.99987 0.000311396 -4.03325e-22)
(1.99988 0.000431114 0)
(1.9999 0.000538582 0)
(1.99991 0.000632729 0)
(1.99993 0.00071283 0)
(1.99995 0.000778487 0)
(1.99996 0.000829615 0)
(1.99998 0.000866414 -1.88489e-22)
(1.99999 0.000889307 0)
(2.00001 0.000898891 0)
(2.00002 0.000895916 0)
(2.00003 0.000881252 -1.78765e-22)
(2.00005 0.000855823 3.59202e-22)
(2.00006 0.000820578 0)
(2.00006 0.000776501 1.75094e-22)
(2.00007 0.000724545 0)
(2.00008 0.000665648 3.44712e-22)
(2.00008 0.000600761 6.81707e-22)
(2.00009 0.00053067 1.65419e-22)
(2.00009 0.000456126 -6.77504e-22)
(2.0001 0.000377948 3.35413e-22)
(2.0001 0.000296887 -3.35528e-22)
(2.0001 0.000213614 0)
(2.0001 0.000128824 0)
(2.0001 4.304e-05 -1.65984e-22)
(2.00029 -9.65053e-05 0)
(2.00029 -0.000288874 0)
(2.00029 -0.000479955 -1.66746e-22)
(2.00028 -0.000669072 0)
(2.00028 -0.000855194 -1.68762e-22)
(2.00027 -0.00103742 1.68747e-22)
(2.00026 -0.00121475 0)
(2.00025 -0.00138605 -5.17219e-22)
(2.00024 -0.00155001 5.15385e-22)
(2.00022 -0.00170531 0)
(2.0002 -0.00185052 -7.07176e-22)
(2.00018 -0.00198359 -2.1314e-21)
(2.00016 -0.00210336 -3.59182e-22)
(2.00013 -0.0022084 0)
(2.0001 -0.00229664 -1.83513e-22)
(2.00007 -0.00236644 0)
(2.00004 -0.00241617 0)
(2.00001 -0.00244432 1.52642e-21)
(1.99997 -0.00244954 -1.52682e-21)
(1.99993 -0.00243058 0)
(1.99989 -0.00238675 -3.93367e-22)
(1.99985 -0.00231796 -3.5476e-24)
(1.99982 -0.00222424 -3.25728e-24)
(1.99978 -0.00210617 4.00244e-22)
(1.99975 -0.00196497 0)
(1.99972 -0.00180243 0)
(1.99969 -0.00162085 0)
(1.99967 -0.00142307 2.05341e-22)
(1.99966 -0.00121232 6.88264e-25)
(1.99965 -0.0009922 2.05613e-22)
(1.99964 -0.000766612 -3.82244e-25)
(1.99965 -0.000539547 0)
(1.99966 -0.000314873 0)
(1.99967 -9.63562e-05 0)
(1.99969 0.000112528 -4.0437e-22)
(1.99971 0.000308671 2.7924e-24)
(1.99974 0.00048939 3.14699e-24)
(1.99977 0.00065253 3.45097e-24)
(1.9998 0.000796414 7.86236e-22)
(1.99984 0.000919952 -3.91215e-22)
(1.99987 0.0010225 0)
(1.99991 0.00110388 -1.90657e-22)
(1.99994 0.00116433 1.88477e-22)
(1.99997 0.00120441 0)
(2 0.001225 0)
(2.00003 0.00122717 0)
(2.00006 0.00121214 -1.80406e-22)
(2.00008 0.00118129 0)
(2.0001 0.00113596 0)
(2.00012 0.00107759 -3.49767e-22)
(2.00014 0.00100759 -6.90437e-22)
(2.00015 0.000927329 1.37534e-21)
(2.00016 0.000838225 -6.85175e-22)
(2.00018 0.000741307 -8.45628e-22)
(2.00018 0.000637813 6.75902e-22)
(2.00019 0.000528938 0)
(2.0002 0.000415776 0)
(2.0002 0.000299294 1.66163e-22)
(2.00021 0.000180552 0)
(2.00021 6.03488e-05 0)
(2.00052 -0.00012875 0)
(2.00051 -0.000385533 0)
(2.00051 -0.000640714 7.64783e-25)
(2.0005 -0.000893479 0)
(2.00049 -0.00114256 0)
(2.00048 -0.00138681 -3.37201e-22)
(2.00046 -0.00162495 -5.11767e-22)
(2.00045 -0.00185557 5.09586e-22)
(2.00042 -0.00207701 0)
(2.0004 -0.00228748 0)
(2.00037 -0.00248522 -7.05318e-22)
(2.00033 -0.00266743 4.25457e-21)
(2.00029 -0.00283259 -3.57137e-22)
(2.00025 -0.00297857 3.60213e-22)
(2.0002 -0.00310278 0)
(2.00015 -0.00320293 0)
(2.00009 -0.00327663 7.54651e-22)
(2.00003 -0.00332192 2.29181e-21)
(1.99996 -0.00333688 -1.14311e-21)
(1.9999 -0.00331919 0)
(1.99983 -0.00326804 0)
(1.99976 -0.0031834 0)
(1.9997 -0.00306485 0)
(1.99963 -0.00291308 -4.04437e-22)
(1.99957 -0.00272957 -2.67488e-24)
(1.99952 -0.0025166 -2.22044e-24)
(1.99947 -0.00227717 4.09489e-22)
(1.99943 -0.00201504 2.06591e-22)
(1.99941 -0.00173452 5.62582e-25)
(1.99939 -0.00144045 -2.06473e-22)
(1.99938 -0.00113815 6.19966e-22)
(1.99938 -0.000833087 -4.12897e-22)
(1.9994 -0.000530558 -4.10372e-22)
(1.99942 -0.000235686 4.10429e-22)
(1.99945 4.67163e-05 4.05887e-22)
(1.99949 0.000312391 -4.05939e-22)
(1.99954 0.000557634 0)
(1.99959 0.000779504 0)
(1.99965 0.000975748 -3.92046e-22)
(1.9997 0.00114483 3.91999e-22)
(1.99976 0.00128584 3.83637e-22)
(1.99982 0.00139858 -1.92942e-22)
(1.99988 0.00148333 0)
(1.99993 0.00154089 0)
(1.99999 0.00157241 0)
(2.00003 0.00157931 0)
(2.00008 0.00156327 0)
(2.00012 0.00152609 0)
(2.00016 0.00146963 -1.75982e-22)
(2.00019 0.00139574 -8.68379e-22)
(2.00022 0.00130635 6.94575e-22)
(2.00025 0.00120333 6.8292e-22)
(2.00027 0.00108842 -1.0225e-21)
(2.00029 0.000963065 6.73578e-22)
(2.00031 0.000828983 -6.73581e-22)
(2.00032 0.000687738 0)
(2.00033 0.000540763 0)
(2.00034 0.000389342 -7.09301e-25)
(2.00034 0.000234895 0)
(2.00035 7.85248e-05 0)
(2.00081 -0.000161605 -1.63883e-22)
(2.0008 -0.000483999 0)
(2.0008 -0.000804539 1.41638e-25)
(2.00079 -0.00112232 1.65768e-22)
(2.00077 -0.00143586 0)
(2.00075 -0.00174384 8.78364e-25)
(2.00073 -0.0020447 -3.38853e-22)
(2.0007 -0.00233675 3.38756e-22)
(2.00067 -0.00261801 0)
(2.00063 -0.00288626 0)
(2.00058 -0.00313943 3.48918e-22)
(2.00053 -0.003374 1.41083e-21)
(2.00047 -0.0035878 -7.15193e-22)
(2.0004 -0.00377813 3.61037e-22)
(2.00033 -0.00394191 0)
(2.00025 -0.004076 -3.72633e-22)
(2.00016 -0.00417725 3.72756e-22)
(2.00006 -0.00424314 9.61314e-24)
(1.99997 -0.00427078 -1.71941e-21)
(1.99986 -0.00425685 -3.90528e-22)
(1.99976 -0.0042004 3.89227e-22)
(1.99965 -0.00410123 -3.9831e-24)
(1.99954 -0.00395839 3.99085e-22)
(1.99944 -0.00377265 0)
(1.99935 -0.00354563 0)
(1.99926 -0.00328008 0)
(1.99919 -0.00297976 0)
(1.99913 -0.00264937 -2.06557e-22)
(1.99908 -0.00229448 0)
(1.99905 -0.00192125 0)
(1.99904 -0.00153663 6.25071e-22)
(1.99904 -0.00114779 -4.15313e-22)
(1.99906 -0.000761547 0)
(1.99909 -0.00038467 0)
(1.99914 -2.34089e-05 0)
(1.9992 0.000316711 0)
(1.99927 0.000630843 4.01157e-22)
(1.99935 0.000915193 -3.87811e-24)
(1.99944 0.00116688 -5.95029e-22)
(1.99953 0.00138394 0)
(1.99962 0.0015653 0)
(1.99971 0.00171068 3.79488e-22)
(1.9998 0.00182052 -5.68048e-22)
(1.99988 0.00189585 0)
(1.99996 0.00193821 0)
(2.00004 0.00194945 0)
(2.00011 0.00193174 0)
(2.00017 0.00188738 0)
(2.00023 0.00181871 5.25548e-22)
(2.00028 0.00172815 1.38298e-21)
(2.00033 0.00161814 -1.38406e-21)
(2.00037 0.00149112 6.80188e-22)
(2.00041 0.00134901 -3.40817e-22)
(2.00044 0.00119384 0)
(2.00046 0.00102781 1.66669e-22)
(2.00048 0.000852827 0)
(2.0005 0.000670619 0)
(2.00051 0.000482863 -1.6543e-22)
(2.00052 0.00029131 0)
(2.00052 9.7372e-05 1.63465e-22)
(2.00116 -0.000195417 1.15231e-24)
(2.00116 -0.000585304 0)
(2.00115 -0.000973161 0)
(2.00113 -0.00135803 -1.64374e-22)
(2.00111 -0.00173831 0)
(2.00109 -0.00211245 1.67154e-22)
(2.00106 -0.00247874 -1.68464e-22)
(2.00102 -0.00283517 3.36996e-22)
(2.00097 -0.00317954 0)
(2.00092 -0.00350913 -6.92588e-22)
(2.00085 -0.00382154 3.43753e-22)
(2.00078 -0.00411295 6.00224e-24)
(2.0007 -0.00437979 1.42704e-21)
(2.0006 -0.00461901 -7.2348e-22)
(2.0005 -0.00482698 -4.68471e-24)
(2.00038 -0.00499966 -1.92294e-22)
(2.00026 -0.00513313 3.76537e-21)
(2.00012 -0.00522405 -1.49035e-21)
(1.99998 -0.00526827 -2.49432e-21)
(1.99983 -0.00526156 3.49771e-21)
(1.99967 -0.00520263 3.9283e-22)
(1.99952 -0.00509086 -4.00529e-22)
(1.99937 -0.00492457 -3.96579e-24)
(1.99922 -0.00470457 4.04626e-22)
(1.99908 -0.00443256 0)
(1.99895 -0.00411174 0)
(1.99884 -0.00374667 0)
(1.99875 -0.00334313 0)
(1.99868 -0.00290798 2.10034e-22)
(1.99863 -0.00244895 0)
(1.99861 -0.00197489 -6.27274e-22)
(1.99861 -0.00149486 0)
(1.99863 -0.00101753 4.15379e-22)
(1.99868 -0.000551478 -4.15469e-22)
(1.99875 -0.000104621 4.10177e-22)
(1.99884 0.000316048 -3.43111e-24)
(1.99894 0.000704434 -8.09848e-22)
(1.99906 0.00105584 4.02923e-22)
(1.99918 0.00136671 -1.96279e-22)
(1.99931 0.00163466 3.94117e-22)
(1.99944 0.0018585 1.93697e-22)
(1.99957 0.00203798 0)
(1.9997 0.00217375 1.88582e-22)
(1.99982 0.00226722 0)
(1.99993 0.00232033 0)
(2.00004 0.00233548 1.81238e-22)
(2.00014 0.00231541 -1.78939e-22)
(2.00024 0.00226296 0)
(2.00032 0.00218106 2.0917e-21)
(2.00039 0.00207275 1.36387e-21)
(2.00046 0.00194104 -2.7575e-21)
(2.00052 0.00178873 -6.7683e-22)
(2.00057 0.00161814 1.51638e-21)
(2.00061 0.001432 -6.71554e-22)
(2.00065 0.00123284 -1.66653e-22)
(2.00068 0.00102292 0)
(2.0007 0.000804334 3.28332e-22)
(2.00072 0.000579116 -1.64328e-22)
(2.00073 0.000349349 0)
(2.00074 0.00011674 -1.07136e-24)
(2.00159 -0.000230359 1.62687e-22)
(2.00158 -0.000690004 0)
(2.00157 -0.00114755 0)
(2.00155 -0.001602 1.6322e-22)
(2.00153 -0.00205169 -9.06159e-25)
(2.00149 -0.00249495 1.64965e-22)
(2.00145 -0.00292992 -1.65981e-22)
(2.0014 -0.00335431 -5.06056e-22)
(2.00134 -0.00376571 3.37447e-22)
(2.00127 -0.00416097 -6.88763e-22)
(2.00119 -0.00453718 -1.80586e-22)
(2.00109 -0.0048904 1.04602e-21)
(2.00098 -0.00521583 -2.84224e-21)
(2.00085 -0.0055095 -1.44651e-21)
(2.00071 -0.00576742 1.44676e-21)
(2.00055 -0.00598457 -1.84762e-22)
(2.00038 -0.00615621 4.50759e-21)
(2.0002 -0.00627748 -7.43893e-22)
(2 -0.00634311 -7.69065e-22)
(1.9998 -0.00634795 -2.33948e-21)
(1.99958 -0.00628996 3.9737e-22)
(1.99937 -0.0061679 0)
(1.99916 -0.00597927 0)
(1.99895 -0.00572467 -4.10724e-22)
(1.99876 -0.00540585 -3.41518e-24)
(1.99858 -0.00502645 4.14358e-22)
(1.99842 -0.00459175 0)
(1.99829 -0.00410878 4.21221e-22)
(1.99819 -0.00358595 -6.31236e-22)
(1.99812 -0.00303279 0)
(1.99808 -0.0024603 2.0751e-22)
(1.99808 -0.00187985 -8.42618e-22)
(1.99811 -0.00130225 2.02589e-24)
(1.99818 -0.000738176 8.35033e-22)
(1.99827 -0.000197548 -3.24885e-24)
(1.99839 0.00031102 -4.13125e-22)
(1.99854 0.000780048 0)
(1.99869 0.00120381 4.00516e-22)
(1.99886 0.00157812 -4.83296e-24)
(1.99904 0.00190021 -3.95487e-22)
(1.99922 0.0021688 -3.87835e-22)
(1.9994 0.00238379 0)
(1.99957 0.00254618 0)
(1.99974 0.00265783 -1.85931e-22)
(1.9999 0.00272129 0)
(2.00005 0.00273959 -3.61969e-22)
(2.00018 0.0027161 1.78912e-22)
(2.00031 0.00265433 -3.52039e-22)
(2.00042 0.00255785 -2.08902e-21)
(2.00053 0.00243036 -1.3708e-21)
(2.00062 0.00227566 6.90423e-22)
(2.0007 0.00209655 -6.23117e-24)
(2.00076 0.00189615 -1.00767e-21)
(2.00082 0.00167775 3.32403e-22)
(2.00087 0.00144416 0)
(2.00091 0.00119807 0)
(2.00094 0.000941937 -1.22657e-24)
(2.00097 0.000678113 0)
(2.00098 0.000409016 0)
(2.00099 0.00013663 -1.62372e-22)
(2.00208 -0.000266543 0)
(2.00207 -0.000798422 0)
(2.00206 -0.0013282 1.60836e-22)
(2.00204 -0.00185498 -1.62961e-22)
(2.00201 -0.00237708 0)
(2.00197 -0.00289272 -3.27946e-22)
(2.00192 -0.00339998 1.64563e-22)
(2.00185 -0.00389639 1.65943e-22)
(2.00178 -0.00437926 0)
(2.00169 -0.00484512 0)
(2.00158 -0.00529049 -5.19968e-22)
(2.00146 -0.0057112 3.43155e-22)
(2.00132 -0.00610189 1.42179e-21)
(2.00115 -0.00645661 4.28809e-21)
(2.00097 -0.00677104 0)
(2.00077 -0.00703948 -7.36679e-22)
(2.00055 -0.00725605 -2.99642e-21)
(2.00031 -0.00741417 -7.59853e-22)
(2.00005 -0.00750731 -1.54639e-21)
(1.99978 -0.00752909 3.82217e-22)
(1.99949 -0.0074762 -7.9662e-22)
(1.99921 -0.00734674 -5.12455e-24)
(1.99892 -0.00713714 -4.76902e-24)
(1.99864 -0.00684757 4.09399e-22)
(1.99838 -0.00647973 0)
(1.99814 -0.00603753 0)
(1.99792 -0.00552716 0)
(1.99774 -0.00495704 2.1364e-22)
(1.9976 -0.00433728 -2.14368e-22)
(1.9975 -0.00367954 0)
(1.99745 -0.00299746 4.2129e-22)
(1.99745 -0.00230517 -4.26361e-22)
(1.99749 -0.00161598 0)
(1.99758 -0.000943183 0)
(1.9977 -0.000298904 6.26626e-22)
(1.99786 0.000306298 -4.16506e-22)
(1.99805 0.000863415 -4.07728e-22)
(1.99826 0.00136554 8.10265e-22)
(1.99848 0.00180791 -4.02468e-22)
(1.99872 0.00218748 0)
(1.99896 0.002503 5.80012e-22)
(1.99919 0.00275462 -3.85781e-22)
(1.99942 0.00294392 -1.88616e-22)
(1.99964 0.00307334 3.71623e-22)
(1.99985 0.00314621 0)
(2.00005 0.0031663 1.80738e-22)
(2.00023 0.00313778 -3.55167e-22)
(2.0004 0.00306494 3.51958e-22)
(2.00054 0.00295213 -1.36681e-21)
(2.00068 0.00280378 7.07107e-22)
(2.0008 0.00262407 3.40626e-22)
(2.0009 0.00241631 1.67021e-22)
(2.00099 0.00218448 -1.67031e-22)
(2.00107 0.00193217 -1.65546e-22)
(2.00113 0.00166264 3.26372e-22)
(2.00118 0.00137895 -8.71734e-25)
(2.00122 0.00108391 -3.25216e-22)
(2.00125 0.000780193 1.6075e-22)
(2.00127 0.000470496 0)
(2.00128 0.0001571 0)
(2.00265 -0.000303984 0)
(2.00264 -0.000910604 0)
(2.00263 -0.00151527 -3.19798e-22)
(2.0026 -0.00211723 0)
(2.00256 -0.00271486 0)
(2.00252 -0.00330639 1.66305e-24)
(2.00246 -0.00388981 0)
(2.00238 -0.00446258 -1.65999e-22)
(2.00229 -0.0050218 -1.67851e-22)
(2.00218 -0.00556365 1.67737e-22)
(2.00205 -0.00608417 -6.87711e-22)
(2.0019 -0.00657877 6.87583e-22)
(2.00172 -0.0070417 0)
(2.00152 -0.00746509 -4.2706e-21)
(2.00129 -0.00784419 -6.99245e-22)
(2.00104 -0.00817193 7.7416e-22)
(2.00076 -0.00844151 -4.46288e-21)
(2.00045 -0.00864418 1.52508e-21)
(2.00012 -0.00877224 -7.65477e-22)
(1.99977 -0.00881743 0)
(1.9994 -0.00877481 -7.98083e-22)
(1.99903 -0.00864156 0)
(1.99866 -0.00841277 -4.12271e-22)
(1.99829 -0.00808793 4.12408e-22)
(1.99794 -0.00766836 -4.21624e-22)
(1.99762 -0.00715833 2.08647e-22)
(1.99734 -0.0065649 0)
(1.9971 -0.00589799 -2.13603e-22)
(1.99691 -0.00516987 6.48645e-22)
(1.99678 -0.0043947 2.17344e-22)
(1.99671 -0.00358931 -4.36898e-22)
(1.9967 -0.00277111 -2.15257e-22)
(1.99675 -0.0019566 4.30043e-22)
(1.99686 -0.00116207 0)
(1.99702 -0.000402359 2.10121e-22)
(1.99723 0.000309653 -4.66214e-24)
(1.99748 0.000963326 -5.16566e-24)
(1.99775 0.00155052 -4.10572e-22)
(1.99804 0.00206589 3.99002e-22)
(1.99834 0.00250621 -5.9715e-22)
(1.99865 0.00287052 1.95053e-22)
(1.99896 0.00315945 0)
(1.99925 0.00337525 1.88617e-22)
(1.99954 0.00352129 -1.8569e-22)
(1.99981 0.00360183 0)
(2.00006 0.00362163 0)
(2.00029 0.00358573 3.55103e-22)
(2.0005 0.00349931 -5.01787e-24)
(2.00069 0.00336767 -1.7942e-23)
(2.00086 0.00319623 1.36193e-21)
(2.00101 0.002989 3.37663e-22)
(2.00114 0.00275042 1.65706e-22)
(2.00125 0.00248503 1.64171e-22)
(2.00135 0.00219684 -1.29726e-24)
(2.00143 0.00188954 -1.64455e-22)
(2.00149 0.00156656 0)
(2.00154 0.001231 0)
(2.00158 0.00088585 -3.19832e-22)
(2.0016 0.000534111 0)
(2.00162 0.000178275 0)
(2.0033 -0.000342614 0)
(2.00329 -0.00102641 0)
(2.00327 -0.00170852 5.97786e-25)
(2.00324 -0.00238846 1.58306e-22)
(2.0032 -0.00306471 0)
(2.00314 -0.00373562 1.61455e-22)
(2.00307 -0.00439921 1.62668e-22)
(2.00299 -0.00505291 1.68627e-24)
(2.00288 -0.00569364 1.68059e-24)
(2.00275 -0.00631743 -1.68237e-22)
(2.0026 -0.00691965 1.68197e-22)
(2.00242 -0.00749516 1.71007e-22)
(2.00221 -0.00803823 -3.47389e-22)
(2.00196 -0.00853903 -2.82486e-21)
(2.00168 -0.00899174 -7.31395e-22)
(2.00137 -0.00938853 2.92412e-21)
(2.00102 -0.00972063 2.24584e-21)
(2.00064 -0.00997693 -1.51855e-21)
(2.00022 -0.0101486 1.54527e-21)
(1.99978 -0.0102252 2.36941e-21)
(1.99932 -0.0101993 3.94482e-22)
(1.99885 -0.0100667 -4.75735e-24)
(1.99837 -0.00982108 -4.15703e-22)
(1.9979 -0.00946078 8.3716e-22)
(1.99745 -0.00898644 -4.2148e-22)
(1.99703 -0.00840254 2.13078e-22)
(1.99666 -0.00771703 0)
(1.99634 -0.00694167 2.19449e-22)
(1.9961 -0.00609113 2.25395e-22)
(1.99592 -0.00518261 -2.17237e-22)
(1.99583 -0.00423703 2.15851e-22)
(1.99581 -0.00327579 2.16984e-22)
(1.99588 -0.00231921 2.1403e-22)
(1.99602 -0.00138741 -4.33214e-22)
(1.99623 -0.00049836 0)
(1.9965 0.000332337 -4.19835e-22)
(1.99681 0.00109213 5.80215e-24)
(1.99716 0.0017716 4.13887e-22)
(1.99753 0.00236504 -4.00997e-22)
(1.99792 0.00286913 5.83557e-24)
(1.9983 0.00328347 3.35305e-24)
(1.99869 0.00360953 -5.72396e-22)
(1.99906 0.00385056 3.80337e-22)
(1.99942 0.00401108 -1.85001e-22)
(1.99975 0.00409658 -1.81717e-22)
(2.00007 0.00411299 -7.1056e-22)
(2.00035 0.00406648 2.10951e-21)
(2.00061 0.00396325 3.32463e-24)
(2.00085 0.0038096 2.75611e-21)
(2.00106 0.00361176 1.00789e-21)
(2.00124 0.00337393 -1.69771e-22)
(2.00141 0.00310173 -3.31513e-22)
(2.00154 0.0028002 -1.6255e-22)
(2.00166 0.00247374 1.62564e-22)
(2.00176 0.00212646 -1.61433e-22)
(2.00184 0.00176209 -1.59191e-22)
(2.0019 0.00138411 1.59214e-22)
(2.00195 0.000995728 1.06998e-24)
(2.00198 0.00060022 1.58028e-22)
(2.002 0.000200282 0)
(2.00402 -0.000382292 0)
(2.00401 -0.00114544 0)
(2.00399 -0.00190732 0)
(2.00396 -0.00266781 -1.56962e-22)
(2.00391 -0.00342561 1.56905e-22)
(2.00385 -0.00417934 -1.59189e-22)
(2.00377 -0.00492707 1.59134e-22)
(2.00368 -0.00566631 0)
(2.00356 -0.0063939 0)
(2.00341 -0.00710575 1.66501e-22)
(2.00323 -0.00779693 -3.35377e-22)
(2.00302 -0.00846121 -1.99584e-24)
(2.00277 -0.00909292 7.00466e-22)
(2.00248 -0.00968162 2.12534e-21)
(2.00215 -0.0102181 1.44544e-21)
(2.00177 -0.0106945 -1.44767e-21)
(2.00135 -0.0110999 -1.49505e-21)
(2.00088 -0.0114209 9.41121e-22)
(2.00037 -0.0116469 -7.74375e-22)
(1.99982 -0.0117645 1.21329e-23)
(1.99925 -0.0117635 -1.62146e-21)
(1.99865 -0.0116372 3.26494e-21)
(1.99805 -0.0113781 -4.12921e-22)
(1.99746 -0.0109825 0)
(1.99689 -0.0104501 0)
(1.99635 -0.00978525 0)
(1.99587 -0.00899693 0)
(1.99547 -0.00809872 -2.19411e-22)
(1.99515 -0.00710856 2.30043e-22)
(1.99492 -0.00604725 2.29562e-24)
(1.9948 -0.00494072 0)
(1.99478 -0.00381536 2.18565e-22)
(1.99486 -0.00269644 -2.23756e-22)
(1.99504 -0.00160863 2.20628e-22)
(1.9953 -0.000573824 4.30274e-22)
(1.99564 0.000389227 -6.45576e-22)
(1.99604 0.00126581 -4.17871e-22)
(1.99648 0.00204524 2.09638e-22)
(1.99695 0.00272158 0)
(1.99743 0.00329191 1.99205e-22)
(1.99791 0.00375663 -4.75873e-25)
(1.99839 0.00411847 -1.14115e-25)
(1.99885 0.00438214 -1.88203e-22)
(1.99929 0.00455369 -3.65659e-22)
(1.9997 0.00464014 5.47735e-22)
(2.00009 0.00464882 -1.41275e-21)
(2.00044 0.00458734 1.41223e-21)
(2.00075 0.00446314 -2.76573e-21)
(2.00104 0.0042833 3.03795e-21)
(2.00129 0.00405483 -1.00902e-21)
(2.00152 0.00378267 0)
(2.00171 0.00347345 1.62318e-22)
(2.00188 0.00313262 -1.62328e-22)
(2.00202 0.00276501 0)
(2.00214 0.0023751 0)
(2.00223 0.00196691 0)
(2.00231 0.00154428 0)
(2.00236 0.00111054 0)
(2.0024 0.000669255 0)
(2.00242 0.00022326 0)
(2.00483 -0.0004228 0)
(2.00481 -0.00126707 0)
(2.00479 -0.00211065 0)
(2.00476 -0.00295394 0)
(2.00471 -0.00379589 0)
(2.00465 -0.00463558 1.56895e-22)
(2.00456 -0.00547123 -3.15239e-22)
(2.00446 -0.00630057 1.58361e-22)
(2.00432 -0.00712048 -1.62229e-22)
(2.00416 -0.00792677 -2.35e-24)
(2.00396 -0.00871431 1.6448e-22)
(2.00371 -0.00947609 0)
(2.00343 -0.0102057 -3.47673e-22)
(2.00309 -0.0108929 -1.06598e-21)
(2.0027 -0.0115254 7.12391e-21)
(2.00225 -0.0120939 -2.87856e-21)
(2.00175 -0.0125854 1.48372e-21)
(2.00119 -0.0129844 -8.52894e-26)
(2.00057 -0.0132777 9.67404e-22)
(1.9999 -0.0134488 -1.57272e-21)
(1.9992 -0.0134828 -3.23796e-21)
(1.99846 -0.0133701 7.01401e-24)
(1.99771 -0.0131023 0)
(1.99697 -0.0126722 -4.31282e-22)
(1.99625 -0.0120782 -6.24905e-24)
(1.99558 -0.0113242 4.38122e-22)
(1.99497 -0.0104201 0)
(1.99445 -0.00938174 0)
(1.99404 -0.00823081 -2.2192e-22)
(1.99375 -0.00699268 -4.50892e-22)
(1.99359 -0.00569952 4.5264e-22)
(1.99357 -0.00438427 -2.29065e-22)
(1.99367 -0.00307832 0)
(1.9939 -0.00181199 -6.62905e-22)
(1.99423 -0.000612091 2.20792e-22)
(1.99466 0.000498988 4.26754e-22)
(1.99515 0.00150403 -4.29584e-22)
(1.9957 0.00239138 2.08087e-22)
(1.99629 0.00315503 1.99959e-22)
(1.99688 0.00379296 -6.06154e-22)
(1.99748 0.00430705 -4.38284e-25)
(1.99807 0.00470174 -2.63985e-26)
(1.99863 0.00498379 1.88173e-22)
(1.99916 0.00516127 6.70264e-25)
(1.99966 0.00524307 0)
(2.00012 0.00523825 7.60204e-24)
(2.00054 0.00515605 1.40161e-21)
(2.00092 0.00500555 -2.7176e-21)
(2.00126 0.0047941 1.38997e-22)
(2.00156 0.00453005 -1.66733e-22)
(2.00183 0.00421916 0)
(2.00206 0.00386885 1.60319e-22)
(2.00225 0.00348497 -1.60331e-22)
(2.00242 0.00307282 0)
(2.00256 0.0026372 0)
(2.00267 0.00218237 0)
(2.00276 0.00171246 1.54357e-22)
(2.00283 0.00123096 -1.5438e-22)
(2.00287 0.000741627 0)
(2.00289 0.000247349 0)
(2.00571 -0.000463854 0)
(2.0057 -0.00139041 0)
(2.00568 -0.00231708 0)
(2.00564 -0.00324487 0)
(2.00559 -0.00417316 0)
(2.00553 -0.00510157 -1.54335e-22)
(2.00544 -0.00602863 3.10167e-22)
(2.00533 -0.00695243 1.91394e-24)
(2.00518 -0.00787006 2.1877e-24)
(2.005 -0.00877724 1.64756e-22)
(2.00478 -0.00966891 -4.89444e-22)
(2.00451 -0.0105375 -3.02976e-24)
(2.00419 -0.0113756 1.679e-22)
(2.0038 -0.0121728 -3.51772e-22)
(2.00335 -0.0129154 -2.11428e-21)
(2.00283 -0.0135907 -2.15858e-21)
(2.00224 -0.0141832 -1.97309e-23)
(2.00157 -0.0146759 1.70888e-22)
(2.00084 -0.0150517 5.72148e-22)
(2.00003 -0.015291 -2.38617e-21)
(1.99918 -0.0153732 -2.47421e-21)
(1.99828 -0.0152846 -8.27072e-22)
(1.99736 -0.0150148 0)
(1.99643 -0.0145522 -4.37327e-22)
(1.99554 -0.0138932 -7.22004e-24)
(1.99469 -0.0130409 4.45257e-22)
(1.99393 -0.0120057 2.2979e-22)
(1.99328 -0.0108062 0)
(1.99276 -0.0094685 4.67775e-22)
(1.99239 -0.00802377 -7.00061e-22)
(1.99219 -0.00651232 2.31858e-22)
(1.99215 -0.00497539 -4.59834e-22)
(1.99229 -0.00345206 6.84139e-22)
(1.99257 -0.00198014 -5.88845e-24)
(1.99299 -0.000592266 -2.28558e-22)
(1.99353 0.000684729 2.18304e-22)
(1.99415 0.00183095 0)
(1.99483 0.00283395 0)
(1.99555 0.00368841 -2.02308e-22)
(1.99628 0.00439375 4.06666e-22)
(1.99701 0.00495417 1.96481e-22)
(1.99772 0.00537664 1.0264e-25)
(1.9984 0.00567067 -3.74578e-22)
(1.99904 0.00584693 -5.41832e-22)
(1.99963 0.00591664 2.15475e-21)
(2.00017 0.00589103 -1.4102e-21)
(2.00067 0.00578111 6.82193e-22)
(2.00112 0.00559718 2.03501e-21)
(2.00152 0.00534751 -2.34225e-21)
(2.00187 0.00504208 -3.29541e-22)
(2.00218 0.00468718 0)
(2.00244 0.004291 -1.58081e-22)
(2.00267 0.00385975 1.58101e-22)
(2.00287 0.00339916 0)
(2.00303 0.0029143 1.5369e-22)
(2.00316 0.00240967 -1.53708e-22)
(2.00326 0.00188961 0)
(2.00334 0.00135764 0)
(2.00338 0.000817677 0)
(2.00341 0.000272678 0)
(2.00668 -0.000505106 0)
(2.00667 -0.00151444 0)
(2.00665 -0.00252493 0)
(2.00661 -0.00353828 0)
(2.00657 -0.00455447 0)
(2.0065 -0.0055738 0)
(2.00641 -0.00659524 -1.53122e-22)
(2.0063 -0.00761748 -1.98333e-24)
(2.00615 -0.00863791 -1.59525e-22)
(2.00596 -0.00965253 1.54601e-22)
(2.00572 -0.0106563 -1.6547e-22)
(2.00542 -0.0116414 3.25041e-22)
(2.00506 -0.0125995 -3.38382e-22)
(2.00463 -0.0135196 -7.67389e-24)
(2.00412 -0.014387 3.14343e-21)
(2.00352 -0.0151857 -7.25801e-22)
(2.00284 -0.0158978 -1.48846e-21)
(2.00206 -0.0165034 -2.08906e-22)
(2.00119 -0.0169809 -2.04515e-23)
(2.00023 -0.0173065 2.37879e-21)
(1.9992 -0.0174538 -4.36289e-23)
(1.99811 -0.0174033 -4.24001e-22)
(1.99698 -0.0171409 6.4079e-22)
(1.99585 -0.0166499 2.21677e-22)
(1.99474 -0.0159233 0)
(1.99369 -0.0149624 2.31235e-22)
(1.99273 -0.0137782 -2.29716e-22)
(1.99191 -0.012392 4.71486e-22)
(1.99126 -0.0108354 -7.0253e-22)
(1.9908 -0.00914712 7.0945e-22)
(1.99054 -0.00737777 -2.37629e-22)
(1.9905 -0.0055795 4.70649e-22)
(1.99067 -0.0038016 -2.39229e-22)
(1.99104 -0.00209123 6.93233e-22)
(1.99157 -0.000488406 -8.23021e-24)
(1.99224 0.000974732 -6.76646e-22)
(1.99301 0.00227569 -4.31925e-22)
(1.99385 0.00340156 4.3149e-22)
(1.99473 0.00434851 0)
(1.99562 0.00511873 2.01896e-22)
(1.9965 0.00571967 -1.97074e-22)
(1.99735 0.006162 -1.9138e-22)
(1.99816 0.0064589 1.47548e-24)
(1.99892 0.00662422 0)
(1.99962 0.00667232 1.40552e-21)
(2.00026 0.00661682 -2.76912e-21)
(2.00084 0.00647028 -1.01686e-21)
(2.00136 0.00624419 -3.37233e-22)
(2.00182 0.00594873 1.62514e-22)
(2.00222 0.00559518 -1.12198e-21)
(2.00258 0.00519007 4.77506e-22)
(2.00288 0.00474257 -1.57626e-22)
(2.00315 0.00425909 0)
(2.00337 0.00374571 0)
(2.00355 0.00320775 0)
(2.0037 0.00264979 -1.50083e-22)
(2.00381 0.00207638 7.95905e-25)
(2.0039 0.00149105 1.49354e-22)
(2.00395 0.000897714 0)
(2.00398 0.000299346 0)
(2.00773 -0.000546081 -1.43743e-22)
(2.00772 -0.00163784 1.44144e-22)
(2.0077 -0.00273208 0)
(2.00767 -0.00383116 -1.45917e-22)
(2.00763 -0.004936 1.45839e-22)
(2.00757 -0.00604769 0)
(2.00748 -0.00716593 1.50053e-22)
(2.00737 -0.00829006 2.04388e-24)
(2.00722 -0.00941807 -3.06241e-22)
(2.00702 -0.0105464 -1.59591e-22)
(2.00677 -0.0116703 1.53811e-22)
(2.00646 -0.0127821 1.59782e-22)
(2.00607 -0.0138725 0)
(2.00559 -0.0149299 0)
(2.00502 -0.0159389 -3.52524e-22)
(2.00435 -0.0168797 -1.07058e-21)
(2.00356 -0.017733 1.45233e-21)
(2.00266 -0.0184745 -1.13838e-21)
(2.00164 -0.0190773 -2.27892e-23)
(2.00051 -0.0195127 1.59979e-21)
(1.99928 -0.0197469 5.73141e-21)
(1.99797 -0.0197531 -8.57036e-22)
(1.9966 -0.0195114 6.39671e-22)
(1.99522 -0.0189988 2.1952e-22)
(1.99385 -0.0182034 0)
(1.99255 -0.0171233 -2.31108e-22)
(1.99136 -0.0157691 0)
(1.99033 -0.014165 2.42089e-22)
(1.98951 -0.0123497 1.3552e-24)
(1.98893 -0.0103714 -9.79839e-22)
(1.98862 -0.0082943 1.47909e-21)
(1.98857 -0.00618506 -4.30562e-24)
(1.9888 -0.00410644 -4.83767e-22)
(1.98926 -0.00211757 5.75939e-24)
(1.98993 -0.000267881 -2.24806e-22)
(1.99077 0.00140422 6.85679e-22)
(1.99172 0.00287366 0)
(1.99276 0.00412811 0)
(1.99384 0.00516662 -4.12583e-22)
(1.99491 0.00599561 1.1754e-23)
(1.99597 0.00662749 7.94216e-22)
(1.99698 0.00707812 1.07045e-24)
(1.99794 0.00736535 2.0545e-24)
(1.99882 0.00750699 1.44095e-21)
(1.99964 0.00752118 -8.43736e-21)
(2.00038 0.00742444 3.44801e-21)
(2.00105 0.00723006 6.73278e-22)
(2.00164 0.00695218 0)
(2.00217 0.00660252 0)
(2.00263 0.00619286 6.39293e-22)
(2.00303 0.00573065 1.54917e-22)
(2.00338 0.0052257 -1.54917e-22)
(2.00367 0.00468462 0)
(2.00392 0.00411372 -1.49501e-22)
(2.00412 0.00351844 1.4952e-22)
(2.00429 0.00290348 0)
(2.00442 0.00227334 0)
(2.00451 0.00163152 1.45916e-22)
(2.00458 0.000981905 -1.45957e-22)
(2.0046 0.000327419 0)
(2.00887 -0.000586318 0)
(2.00885 -0.00175914 0)
(2.00884 -0.00293595 1.41649e-22)
(2.00882 -0.00412006 -1.41566e-22)
(2.00878 -0.00531337 0)
(2.00873 -0.00651792 0)
(2.00866 -0.00773448 -1.46668e-22)
(2.00855 -0.00896319 -2.09145e-24)
(2.0084 -0.0102029 2.99605e-22)
(2.00821 -0.0114509 -1.50932e-22)
(2.00796 -0.0127028 -3.13547e-22)
(2.00763 -0.0139514 1.49667e-22)