/*--------------------------------*- C++ -*----------------------------------*\
  =========                 |
  \\      /  F ield         | OpenFOAM: The Open Source CFD Toolbox
   \\    /   O peration     | Website:  https://openfoam.org
    \\  /    A nd           | Version:  12
     \\/     M anipulation  |
\*---------------------------------------------------------------------------*/
FoamFile
{
    format      ascii;
    class       volScalarField;
    location    "320";
    object      k;
}
// * * * * * * * * * * * * * * * * * * * * * * * * * * * * * * * * * * * * * //

dimensions      [0 2 -2 0 0 0 0];

internalField   nonuniform List<scalar> 
16227
(
0.00914646
0.00914648
0.00914647
0.00914651
0.0091465
0.00914654
0.00914653
0.00914651
0.00914651
0.00914653
0.00914657
0.00914659
0.00914665
0.00914665
0.00914665
0.00914665
0.00914665
0.00914665
0.00914665
0.00914665
0.00914665
0.00914665
0.00914665
0.00914665
0.00914665
0.00914665
0.00914665
0.00914666
0.00914667
0.00914664
0.00914665
0.00914664
0.00914665
0.00914665
0.00914665
0.00914665
0.00914665
0.00914665
0.00914665
0.00914665
0.00914665
0.00914665
0.00914665
0.00914665
0.00914665
0.00914665
0.00914665
0.00914663
0.00914662
0.00914662
0.00914662
0.00914661
0.00914654
0.00914654
0.00914649
0.00914649
0.00914651
0.00914649
0.00914647
0.00914646
0.00848122
0.00848124
0.00848123
0.00848127
0.00848127
0.0084813
0.00848129
0.00848127
0.00848128
0.00848129
0.00848134
0.00848136
0.00848151
0.00848157
0.00848158
0.00848158
0.00848158
0.00848158
0.00848158
0.00848158
0.00848159
0.00848161
0.00848161
0.0084816
0.0084816
0.00848161
0.0084816
0.0084816
0.00848158
0.00848153
0.00848158
0.0084816
0.0084816
0.00848161
0.0084816
0.00848159
0.00848158
0.00848158
0.00848158
0.00848158
0.00848158
0.00848158
0.00848158
0.00848157
0.00848157
0.00848156
0.00848156
0.00848156
0.00848156
0.00848155
0.00848152
0.00848147
0.00848135
0.00848133
0.0084813
0.00848128
0.00848131
0.00848123
0.00848125
0.00848122
0.00790074
0.00790076
0.00790077
0.00790078
0.00790078
0.00790087
0.00790082
0.00790081
0.00790082
0.00790083
0.00790087
0.00790089
0.00790114
0.0079012
0.00790121
0.00790122
0.00790122
0.00790122
0.00790124
0.00790118
0.00790122
0.00790123
0.00790123
0.00790122
0.00790122
0.00790122
0.00790122
0.00790122
0.00790121
0.00790114
0.0079012
0.00790121
0.00790122
0.00790122
0.00790123
0.00790123
0.00790123
0.00790122
0.00790121
0.00790122
0.00790122
0.00790122
0.00790121
0.0079012
0.00790121
0.00790121
0.0079012
0.0079012
0.00790119
0.00790117
0.00790113
0.00790094
0.00790086
0.00790085
0.00790083
0.00790082
0.00790086
0.00790076
0.00790078
0.00790075
0.00739023
0.00739025
0.00739025
0.00739027
0.00739027
0.00739034
0.00739034
0.00739031
0.00739031
0.00739031
0.00739035
0.00739041
0.00739068
0.00739075
0.00739076
0.00739078
0.00739078
0.0073908
0.00739073
0.0073906
0.00739072
0.00739075
0.00739075
0.00739075
0.00739075
0.00739075
0.00739074
0.00739073
0.00739071
0.00739063
0.0073907
0.00739072
0.00739072
0.00739072
0.00739072
0.00739073
0.00739074
0.00739074
0.00739075
0.00739075
0.00739075
0.00739075
0.00739075
0.00739076
0.00739076
0.00739075
0.00739076
0.00739076
0.00739076
0.00739073
0.00739061
0.00739042
0.00739032
0.00739035
0.00739034
0.00739036
0.00739034
0.00739026
0.00739027
0.00739024
0.00693809
0.00693811
0.00693811
0.00693813
0.00693813
0.00693819
0.00693822
0.00693816
0.00693817
0.00693817
0.00693821
0.00693827
0.00693852
0.00693864
0.00693866
0.00693866
0.00693867
0.00693864
0.00693842
0.00693835
0.00693854
0.0069386
0.00693859
0.00693858
0.00693856
0.00693855
0.00693854
0.00693853
0.0069385
0.0069384
0.00693849
0.00693852
0.00693852
0.00693852
0.00693852
0.00693853
0.00693855
0.00693856
0.00693857
0.00693858
0.00693859
0.00693861
0.00693861
0.00693862
0.00693862
0.00693864
0.00693864
0.00693864
0.00693865
0.00693857
0.00693833
0.00693822
0.00693814
0.00693818
0.0069382
0.00693825
0.00693819
0.00693811
0.00693812
0.0069381
0.00653511
0.00653514
0.00653513
0.00653515
0.00653515
0.0065352
0.00653524
0.00653519
0.00653517
0.00653517
0.00653517
0.00653521
0.00653533
0.00653561
0.00653567
0.00653569
0.00653568
0.00653557
0.00653533
0.00653528
0.00653549
0.00653555
0.00653552
0.0065355
0.00653548
0.00653546
0.00653544
0.00653542
0.00653538
0.00653527
0.00653536
0.00653538
0.00653539
0.0065354
0.00653541
0.00653542
0.00653545
0.00653546
0.00653548
0.0065355
0.00653552
0.00653554
0.00653556
0.00653559
0.0065356
0.00653561
0.00653563
0.00653564
0.00653564
0.00653551
0.00653527
0.00653516
0.00653513
0.00653518
0.00653524
0.00653523
0.00653518
0.00653511
0.00653512
0.0065351
0.0061739
0.00617392
0.00617391
0.00617393
0.00617393
0.00617397
0.00617401
0.00617399
0.00617395
0.00617394
0.00617393
0.00617393
0.00617403
0.00617429
0.00617443
0.00617444
0.0061744
0.0061741
0.00617397
0.00617396
0.00617417
0.00617421
0.00617417
0.00617413
0.00617409
0.00617406
0.00617402
0.00617399
0.00617395
0.00617382
0.00617391
0.00617393
0.00617394
0.00617395
0.00617397
0.00617399
0.00617402
0.00617406
0.00617409
0.00617413
0.00617416
0.00617419
0.00617423
0.00617425
0.00617429
0.00617432
0.00617434
0.00617436
0.0061743
0.00617405
0.00617393
0.00617385
0.00617387
0.00617394
0.00617396
0.00617396
0.00617392
0.00617386
0.00617388
0.00617386
0.00584845
0.00584846
0.00584846
0.00584847
0.00584846
0.0058485
0.00584854
0.00584853
0.00584849
0.00584846
0.00584843
0.00584839
0.00584844
0.00584857
0.00584885
0.00584893
0.00584885
0.0058485
0.00584838
0.00584836
0.00584857
0.00584859
0.00584853
0.00584847
0.00584841
0.00584836
0.00584831
0.00584826
0.00584819
0.00584806
0.00584815
0.00584817
0.00584818
0.0058482
0.00584822
0.00584826
0.00584829
0.00584834
0.00584839
0.00584844
0.0058485
0.00584854
0.00584859
0.00584865
0.0058487
0.00584873
0.00584877
0.00584879
0.00584868
0.00584844
0.00584834
0.00584831
0.00584838
0.00584843
0.00584844
0.00584844
0.00584841
0.00584836
0.00584837
0.00584836
0.00555383
0.00555383
0.00555384
0.00555384
0.00555384
0.00555386
0.0055539
0.00555389
0.00555388
0.00555382
0.00555378
0.00555372
0.00555373
0.00555382
0.00555415
0.00555423
0.00555407
0.00555373
0.00555362
0.00555357
0.00555376
0.00555376
0.00555367
0.00555359
0.0055535
0.00555343
0.00555336
0.0055533
0.00555322
0.00555307
0.00555314
0.00555316
0.00555318
0.0055532
0.00555323
0.00555327
0.00555333
0.0055534
0.00555346
0.00555352
0.0055536
0.00555368
0.00555375
0.00555381
0.00555388
0.00555395
0.00555399
0.00555396
0.00555371
0.00555361
0.00555356
0.00555362
0.00555366
0.00555371
0.00555373
0.00555374
0.00555372
0.00555368
0.00555369
0.00555369
0.00528598
0.00528598
0.00528597
0.00528598
0.00528597
0.00528599
0.00528602
0.005286
0.00528599
0.00528596
0.00528589
0.00528581
0.00528581
0.0052859
0.00528616
0.00528623
0.00528591
0.00528569
0.00528558
0.00528553
0.00528569
0.00528565
0.00528554
0.00528543
0.00528532
0.00528521
0.00528512
0.00528503
0.00528493
0.00528477
0.00528484
0.00528485
0.00528486
0.00528489
0.00528493
0.00528499
0.00528506
0.00528514
0.00528524
0.00528532
0.00528542
0.00528551
0.00528562
0.00528571
0.0052858
0.00528588
0.00528594
0.00528588
0.00528564
0.00528557
0.00528559
0.00528564
0.00528568
0.00528575
0.00528577
0.0052858
0.00528577
0.00528575
0.00528576
0.00528576
0.00504148
0.00504149
0.00504148
0.00504148
0.00504148
0.00504149
0.00504151
0.00504149
0.00504146
0.00504143
0.00504138
0.00504127
0.00504121
0.00504125
0.00504134
0.00504153
0.00504121
0.00504103
0.00504091
0.00504083
0.0050409
0.00504088
0.00504075
0.00504059
0.00504045
0.00504031
0.00504018
0.00504007
0.00503995
0.00503977
0.00503982
0.00503984
0.00503985
0.00503987
0.00503993
0.00504001
0.0050401
0.0050402
0.00504031
0.00504044
0.00504056
0.00504068
0.00504081
0.00504093
0.00504104
0.00504113
0.00504114
0.00504105
0.00504093
0.0050409
0.00504094
0.005041
0.00504106
0.00504114
0.00504117
0.0050412
0.00504119
0.00504117
0.00504118
0.00504118
0.0048175
0.00481751
0.0048175
0.0048175
0.00481749
0.00481751
0.00481751
0.0048175
0.00481746
0.00481742
0.00481736
0.00481727
0.00481717
0.00481714
0.00481719
0.00481733
0.00481708
0.00481688
0.00481671
0.00481659
0.0048165
0.00481655
0.00481642
0.00481623
0.00481605
0.00481587
0.00481571
0.00481557
0.00481542
0.00481522
0.00481527
0.00481527
0.00481528
0.00481531
0.00481538
0.00481547
0.00481558
0.00481571
0.00481585
0.004816
0.00481616
0.00481631
0.00481647
0.00481662
0.00481675
0.00481683
0.00481676
0.00481676
0.00481674
0.00481673
0.00481679
0.00481687
0.00481695
0.00481703
0.00481707
0.00481711
0.00481711
0.00481709
0.00481711
0.00481711
0.00461162
0.00461163
0.00461162
0.00461162
0.00461161
0.00461162
0.00461162
0.0046116
0.00461156
0.00461151
0.00461145
0.00461135
0.00461125
0.00461114
0.00461108
0.00461106
0.00461098
0.00461083
0.00461063
0.00461046
0.00461028
0.00461033
0.00461017
0.00460994
0.00460971
0.00460949
0.00460929
0.00460911
0.00460893
0.00460871
0.00460874
0.00460873
0.00460874
0.00460879
0.00460886
0.00460898
0.00460911
0.00460927
0.00460945
0.00460963
0.00460982
0.00461002
0.0046102
0.00461039
0.00461053
0.0046106
0.00461056
0.00461063
0.00461062
0.00461065
0.00461073
0.00461083
0.00461092
0.004611
0.00461106
0.0046111
0.00461111
0.00461111
0.00461113
0.00461113
0.00442179
0.0044218
0.00442179
0.00442179
0.00442178
0.00442178
0.00442177
0.00442175
0.00442171
0.00442165
0.00442158
0.00442147
0.00442137
0.00442125
0.00442111
0.00442104
0.00442099
0.00442082
0.0044206
0.00442038
0.00442016
0.00442016
0.00441995
0.00441967
0.00441939
0.00441912
0.00441887
0.00441865
0.00441843
0.00441818
0.00441819
0.00441817
0.00441818
0.00441824
0.00441833
0.00441846
0.00441863
0.00441882
0.00441904
0.00441927
0.00441949
0.00441972
0.00441994
0.00442015
0.00442026
0.00442032
0.00442041
0.0044205
0.00442054
0.00442061
0.00442071
0.00442082
0.00442092
0.00442102
0.00442109
0.00442114
0.00442116
0.00442117
0.00442119
0.00442119
0.00424625
0.00424626
0.00424625
0.00424624
0.00424623
0.00424623
0.00424623
0.00424619
0.00424615
0.00424609
0.00424601
0.0042459
0.00424578
0.00424564
0.0042455
0.0042454
0.00424532
0.00424512
0.00424485
0.00424459
0.00424432
0.00424426
0.004244
0.00424366
0.00424332
0.00424299
0.00424269
0.00424242
0.00424216
0.00424188
0.00424187
0.00424184
0.00424185
0.00424191
0.00424203
0.00424219
0.00424239
0.00424262
0.00424287
0.00424314
0.00424341
0.00424369
0.00424394
0.00424414
0.0042442
0.00424436
0.00424451
0.00424465
0.00424473
0.00424483
0.00424497
0.00424509
0.00424521
0.00424532
0.00424539
0.00424546
0.00424548
0.0042455
0.00424553
0.00424553
0.00408348
0.00408348
0.00408348
0.00408347
0.00408346
0.00408346
0.00408345
0.00408342
0.00408337
0.00408331
0.00408322
0.0040831
0.00408297
0.00408282
0.00408266
0.00408254
0.00408242
0.00408219
0.00408188
0.00408157
0.00408125
0.00408107
0.00408079
0.0040804
0.00407999
0.0040796
0.00407924
0.00407891
0.00407861
0.00407829
0.00407825
0.00407821
0.00407822
0.0040783
0.00407843
0.00407863
0.00407887
0.00407914
0.00407944
0.00407975
0.00408007
0.00408039
0.00408069
0.00408089
0.004081
0.00408119
0.00408139
0.00408152
0.00408166
0.00408181
0.00408198
0.00408213
0.00408226
0.00408239
0.00408248
0.00408255
0.00408258
0.0040826
0.00408264
0.00408264
0.00393217
0.00393217
0.00393217
0.00393216
0.00393216
0.00393215
0.00393215
0.00393211
0.00393207
0.003932
0.00393191
0.00393178
0.00393165
0.00393148
0.0039313
0.00393115
0.00393102
0.00393073
0.00393039
0.00393
0.00392962
0.00392925
0.00392901
0.00392859
0.00392811
0.00392764
0.00392721
0.00392682
0.00392646
0.00392611
0.00392604
0.00392598
0.00392599
0.00392608
0.00392624
0.00392647
0.00392676
0.00392708
0.00392743
0.0039278
0.00392818
0.00392853
0.0039288
0.003929
0.00392924
0.0039295
0.00392974
0.0039299
0.00393007
0.00393027
0.00393046
0.00393063
0.00393077
0.00393091
0.00393102
0.00393109
0.00393114
0.00393117
0.0039312
0.0039312
0.00379119
0.00379119
0.00379119
0.00379118
0.00379117
0.00379118
0.00379117
0.00379113
0.00379109
0.00379102
0.00379093
0.0037908
0.00379065
0.00379048
0.00379028
0.00379011
0.00378994
0.00378964
0.00378924
0.00378879
0.00378834
0.00378786
0.00378757
0.00378709
0.00378653
0.00378598
0.00378547
0.00378501
0.00378458
0.00378418
0.00378408
0.00378401
0.00378402
0.00378412
0.00378432
0.00378459
0.00378493
0.00378531
0.00378572
0.00378615
0.00378657
0.00378694
0.00378716
0.00378748
0.00378781
0.00378814
0.00378841
0.00378861
0.00378882
0.00378905
0.00378926
0.00378945
0.00378961
0.00378976
0.00378988
0.00378997
0.00379002
0.00379006
0.00379009
0.0037901
0.00365953
0.00365953
0.00365953
0.00365953
0.00365952
0.00365952
0.00365952
0.00365949
0.00365945
0.00365938
0.00365929
0.00365916
0.003659
0.00365882
0.00365861
0.00365841
0.00365821
0.00365787
0.00365744
0.00365694
0.00365642
0.00365587
0.00365545
0.00365491
0.00365427
0.00365363
0.00365302
0.00365247
0.00365198
0.00365152
0.00365138
0.00365129
0.00365131
0.00365143
0.00365167
0.003652
0.00365239
0.00365283
0.0036533
0.00365378
0.00365426
0.00365467
0.00365495
0.00365534
0.00365573
0.00365609
0.00365637
0.00365662
0.0036569
0.00365716
0.00365739
0.0036576
0.00365778
0.00365795
0.00365807
0.00365817
0.00365823
0.00365827
0.00365831
0.00365832
0.00353632
0.00353633
0.00353633
0.00353633
0.00353633
0.00353634
0.00353634
0.00353631
0.00353627
0.00353621
0.00353612
0.00353599
0.00353584
0.00353565
0.00353543
0.00353519
0.00353495
0.00353459
0.00353413
0.00353358
0.00353297
0.00353234
0.0035317
0.00353116
0.00353046
0.00352972
0.003529
0.00352836
0.00352778
0.00352727
0.00352708
0.00352697
0.00352699
0.00352714
0.00352742
0.0035278
0.00352826
0.00352877
0.00352929
0.0035298
0.00353031
0.00353075
0.00353119
0.00353166
0.00353212
0.0035325
0.00353282
0.00353312
0.00353344
0.00353373
0.00353399
0.00353421
0.00353441
0.00353458
0.00353472
0.00353482
0.0035349
0.00353494
0.00353499
0.003535
0.0034208
0.00342081
0.00342081
0.00342082
0.00342082
0.00342083
0.00342084
0.00342082
0.00342079
0.00342073
0.00342065
0.00342053
0.00342038
0.00342018
0.00341994
0.00341966
0.00341938
0.00341903
0.00341854
0.00341795
0.00341728
0.00341654
0.00341578
0.00341517
0.00341436
0.0034135
0.00341267
0.00341191
0.00341123
0.00341064
0.0034104
0.00341027
0.0034103
0.00341048
0.00341081
0.00341126
0.0034118
0.00341236
0.00341294
0.00341353
0.00341404
0.00341458
0.00341515
0.00341569
0.00341618
0.00341658
0.00341695
0.00341732
0.00341768
0.003418
0.00341828
0.00341852
0.00341873
0.00341891
0.00341906
0.00341918
0.00341925
0.00341931
0.00341935
0.00341937
0.00331228
0.00331229
0.0033123
0.00331231
0.00331232
0.00331234
0.00331235
0.00331234
0.00331232
0.00331228
0.0033122
0.00331209
0.00331195
0.00331176
0.00331151
0.00331122
0.0033109
0.00331055
0.00331003
0.00330938
0.00330864
0.00330783
0.00330696
0.00330621
0.00330531
0.00330432
0.00330336
0.00330247
0.00330168
0.003301
0.00330068
0.00330053
0.00330056
0.00330078
0.00330118
0.00330171
0.0033023
0.00330293
0.0033036
0.00330428
0.00330487
0.0033055
0.00330615
0.00330675
0.00330727
0.00330771
0.00330814
0.00330856
0.00330894
0.00330928
0.00330958
0.00330984
0.00331007
0.00331026
0.00331042
0.00331054
0.00331063
0.00331069
0.00331073
0.00331075
0.00321017
0.00321018
0.00321019
0.0032102
0.00321022
0.00321025
0.00321027
0.00321027
0.00321027
0.00321024
0.00321018
0.00321008
0.00320995
0.00320977
0.00320953
0.00320923
0.0032089
0.00320852
0.00320798
0.0032073
0.0032065
0.0032056
0.00320464
0.00320369
0.00320284
0.00320171
0.0032006
0.00319956
0.00319863
0.00319782
0.00319742
0.00319723
0.00319726
0.00319752
0.00319799
0.00319861
0.00319918
0.0031999
0.0032006
0.00320137
0.00320212
0.00320286
0.00320357
0.0032042
0.00320475
0.00320526
0.00320575
0.00320621
0.00320662
0.00320698
0.0032073
0.00320758
0.00320782
0.00320802
0.00320819
0.00320832
0.00320841
0.00320847
0.00320852
0.00320854
0.00311391
0.00311392
0.00311394
0.00311396
0.00311399
0.00311402
0.00311406
0.00311408
0.00311408
0.00311407
0.00311403
0.00311396
0.00311384
0.00311368
0.00311346
0.00311316
0.0031128
0.00311238
0.00311186
0.00311118
0.00311034
0.00310937
0.00310834
0.00310785
0.00315304
0.00315191
0.0031507
0.00314956
0.00314853
0.00314764
0.00314717
0.00314695
0.00314697
0.00314725
0.00314775
0.00314841
0.00310235
0.00310274
0.00310357
0.00310444
0.0031053
0.00310613
0.00310689
0.00310754
0.00310814
0.00310872
0.00310926
0.00310976
0.00311019
0.00311058
0.00311091
0.0031112
0.00311145
0.00311166
0.00311184
0.00311197
0.00311207
0.00311214
0.00311219
0.00311221
0.00302303
0.00302305
0.00302307
0.0030231
0.00302313
0.00302318
0.00302323
0.00302327
0.0030233
0.00302331
0.00302329
0.00302324
0.00302315
0.00302302
0.00302282
0.00302254
0.00302218
0.00302174
0.00302122
0.00302058
0.00301973
0.00301873
0.00301819
0.00306104
0.00305807
0.00305698
0.00305561
0.00305427
0.00305303
0.00305192
0.00305129
0.00305095
0.00305091
0.0030512
0.00305176
0.00305241
0.00305505
0.00301146
0.00301206
0.00301301
0.00301395
0.00301484
0.00301563
0.00301633
0.00301699
0.00301762
0.0030182
0.00301872
0.00301918
0.00301958
0.00301993
0.00302023
0.00302048
0.00302071
0.00302089
0.00302103
0.00302113
0.0030212
0.00302125
0.00302127
0.00293711
0.00293712
0.00293715
0.00293719
0.00293724
0.0029373
0.00293736
0.00293742
0.00293747
0.00293751
0.00293752
0.0029375
0.00293745
0.00293735
0.00293719
0.00293695
0.00293662
0.0029362
0.0029357
0.00293508
0.00293427
0.00293331
0.00293323
0.00297181
0.00296902
0.00298942
0.00298804
0.00298654
0.00298512
0.00298381
0.002983
0.0029825
0.00298236
0.0029826
0.00298319
0.00296218
0.00296448
0.00292523
0.00292561
0.00292662
0.00292762
0.00292854
0.00292936
0.00293013
0.00293085
0.00293153
0.00293213
0.00293267
0.00293315
0.00293356
0.00293392
0.00293423
0.0029345
0.00293473
0.00293491
0.00293505
0.00293516
0.00293523
0.00293528
0.00293531
0.00285575
0.00285577
0.0028558
0.00285585
0.00285591
0.00285598
0.00285607
0.00285614
0.00285622
0.00285628
0.00285634
0.00285635
0.00285635
0.0028563
0.00285619
0.00285601
0.00285573
0.00285537
0.00285489
0.00285433
0.00285362
0.00285282
0.00285329
0.00288802
0.00288555
0.00290391
0.00290273
0.00290101
0.00289936
0.00289783
0.00289671
0.00289588
0.00289544
0.00289544
0.00289578
0.00287744
0.00287885
0.00284381
0.00284389
0.0028449
0.00284592
0.00284686
0.00284774
0.00284857
0.00284935
0.00285005
0.00285068
0.00285123
0.00285172
0.00285215
0.00285252
0.00285283
0.0028531
0.00285333
0.00285352
0.00285367
0.00285377
0.00285385
0.0028539
0.00285393
0.0027786
0.00277862
0.00277866
0.00277872
0.00277879
0.00277888
0.00277898
0.00277909
0.00277919
0.00277929
0.00277938
0.00277945
0.00277949
0.0027795
0.00277946
0.00277935
0.00277917
0.00277889
0.00277851
0.00277805
0.0027775
0.00277701
0.00277822
0.00280964
0.00280758
0.00282425
0.00282361
0.00282193
0.00282037
0.00281882
0.0028174
0.00281596
0.00281472
0.0028139
0.00281363
0.00279757
0.00279801
0.00276686
0.00276654
0.00276749
0.00276853
0.00276951
0.00277045
0.00277133
0.00277214
0.00277285
0.0027735
0.00277406
0.00277456
0.00277499
0.00277536
0.00277568
0.00277595
0.00277619
0.00277638
0.00277652
0.00277663
0.0027767
0.00277676
0.00277678
0.00270535
0.00270538
0.00270543
0.00270549
0.00270558
0.00270568
0.00270581
0.00270594
0.00270607
0.00270621
0.00270634
0.00270646
0.00270657
0.00270664
0.00270669
0.00270668
0.00270661
0.00270648
0.00270626
0.002706
0.00270571
0.00270574
0.00270792
0.0027366
0.00273552
0.00275127
0.0027517
0.00275154
0.0027516
0.00275107
0.00274917
0.00274574
0.00274189
0.00273871
0.00273683
0.00272245
0.00272182
0.00269402
0.00269325
0.00269411
0.00269518
0.00269621
0.00269719
0.00269808
0.0026989
0.00269962
0.00270027
0.00270084
0.00270134
0.00270177
0.00270215
0.00270247
0.00270274
0.00270297
0.00270316
0.0027033
0.00270341
0.00270348
0.00270354
0.00270357
0.00263572
0.00263575
0.0026358
0.00263588
0.00263598
0.0026361
0.00263625
0.00263641
0.00263658
0.00263675
0.00263693
0.00263711
0.00263728
0.00263744
0.00263758
0.00263769
0.00263777
0.00263782
0.00263785
0.00263791
0.00263806
0.00263894
0.00264242
0.00266899
0.00267015
0.00268582
0.00269018
0.00269641
0.00270512
0.002711
0.00270763
0.00269561
0.0026821
0.00267225
0.00266631
0.00265173
0.00265012
0.00262499
0.00262383
0.0026246
0.00262564
0.00262668
0.00262765
0.00262854
0.00262936
0.00263008
0.00263073
0.00263129
0.00263179
0.00263222
0.00263259
0.00263291
0.00263318
0.00263341
0.00263359
0.00263373
0.00263384
0.00263391
0.00263396
0.00263399
0.00256944
0.00256948
0.00256953
0.00256962
0.00256973
0.00256988
0.00257005
0.00257023
0.00257044
0.00257066
0.00257089
0.00257112
0.00257137
0.00257162
0.00257187
0.00257212
0.00257238
0.00257267
0.00257301
0.00257353
0.00257432
0.00257653
0.00258172
0.00260694
0.00261262
0.00263019
0.00264574
0.00267712
0.0027311
0.00278025
0.00276826
0.00270651
0.00265121
0.00261981
0.00260424
0.0025858
0.00258281
0.0025595
0.00255801
0.00255868
0.00255963
0.00256063
0.00256158
0.00256246
0.00256326
0.00256397
0.00256461
0.00256516
0.00256565
0.00256607
0.00256644
0.00256675
0.00256701
0.00256723
0.00256741
0.00256755
0.00256765
0.00256772
0.00256777
0.0025678
0.00250629
0.00250633
0.00250639
0.00250649
0.00250661
0.00250678
0.00250697
0.00250718
0.00250742
0.00250768
0.00250796
0.00250826
0.00250858
0.00250893
0.00250931
0.00250972
0.00251019
0.00251075
0.00251149
0.0025126
0.00251426
0.00251834
0.00252578
0.00255075
0.00256391
0.0025873
0.00263424
0.00275804
0.00291181
0.0030373
0.00301905
0.00287609
0.00269936
0.0025923
0.00255363
0.0025258
0.00251968
0.00249741
0.00249551
0.00249607
0.00249689
0.00249784
0.00249874
0.00249959
0.00250036
0.00250106
0.00250167
0.00250221
0.00250269
0.0025031
0.00250345
0.00250374
0.002504
0.00250421
0.00250438
0.00250452
0.00250461
0.00250468
0.00250473
0.00250476
0.00244604
0.00244608
0.00244615
0.00244626
0.0024464
0.00244658
0.00244679
0.00244703
0.0024473
0.00244761
0.00244794
0.0024483
0.00244871
0.00244916
0.00244966
0.00245024
0.00245094
0.00245183
0.00245302
0.00245484
0.00245758
0.002464
0.00247403
0.00250041
0.00252451
0.00256062
0.00268484
0.00292923
0.00330445
0.00415097
0.00400696
0.00330397
0.00286759
0.00260422
0.00251495
0.00247374
0.00246056
0.00243842
0.00243601
0.00243651
0.00243718
0.00243807
0.00243891
0.00243971
0.00244045
0.00244111
0.0024417
0.00244222
0.00244267
0.00244307
0.0024434
0.00244369
0.00244393
0.00244413
0.0024443
0.00244442
0.00244451
0.00244458
0.00244463
0.00244466
0.0023885
0.00238855
0.00238862
0.00238874
0.00238889
0.00238909
0.00238932
0.00238959
0.00238989
0.00239024
0.00239062
0.00239105
0.00239153
0.00239208
0.00239272
0.00239347
0.00239441
0.00239564
0.00239734
0.00239996
0.00240393
0.00241296
0.00242549
0.00245513
0.00249261
0.00255048
0.00280527
0.00319604
0.00478508
0.00484269
0.00312966
0.00264746
0.00248191
0.00242954
0.00240478
0.00238237
0.00237928
0.00237975
0.00238027
0.00238108
0.00238186
0.00238261
0.0023833
0.00238392
0.00238448
0.00238497
0.0023854
0.00238577
0.00238609
0.00238636
0.00238659
0.00238678
0.00238694
0.00238706
0.00238715
0.00238722
0.00238726
0.00238729
0.00233349
0.00233355
0.00233363
0.00233375
0.00233391
0.00233413
0.00233438
0.00233467
0.002335
0.00233539
0.00233582
0.0023363
0.00233686
0.00233751
0.00233827
0.0023392
0.00234038
0.00234196
0.00234418
0.00234765
0.00235291
0.0023645
0.00237903
0.00241369
0.00246542
0.00254845
0.00296505
0.0036001
0.0109506
0.10729
0.00647882
0.00337356
0.00266908
0.00244244
0.00239047
0.00235203
0.00232926
0.00232524
0.00232566
0.00232606
0.00232677
0.00232747
0.00232815
0.00232879
0.00232937
0.00232988
0.00233034
0.00233074
0.00233108
0.00233138
0.00233163
0.00233184
0.00233202
0.00233217
0.00233228
0.00233236
0.00233242
0.00233246
0.00233249
0.00228086
0.00228091
0.002281
0.00228113
0.00228131
0.00228153
0.0022818
0.00228211
0.00228247
0.00228289
0.00228336
0.0022839
0.00228453
0.00228526
0.00228615
0.00228723
0.00228864
0.00229055
0.00229327
0.00229755
0.00230417
0.00231796
0.00233408
0.00237477
0.00244134
0.0025384
0.00314181
0.00401304
0.00618436
0.0279356
0.0281891
0.00650306
0.00371758
0.00266382
0.00239786
0.00235442
0.00230245
0.00227909
0.00227376
0.00227406
0.00227434
0.00227495
0.00227556
0.00227617
0.00227674
0.00227726
0.00227773
0.00227814
0.00227851
0.00227882
0.00227909
0.00227932
0.0022795
0.00227967
0.0022798
0.0022799
0.00227997
0.00228002
0.00228006
0.00228009
0.00223044
0.0022305
0.00223059
0.00223073
0.00223091
0.00223115
0.00223143
0.00223176
0.00223215
0.00223259
0.0022331
0.00223369
0.00223437
0.00223518
0.00223617
0.00223739
0.002239
0.00224118
0.00224437
0.00224935
0.00225738
0.00227282
0.00229083
0.00233729
0.00242069
0.00251498
0.00330591
0.0043378
0.00323525
0.0924809
0.223463
0.249714
0.00989477
0.00273432
0.0023679
0.00232471
0.00225703
0.00223216
0.00222477
0.0022248
0.00222494
0.00222544
0.00222595
0.00222647
0.00222697
0.00222743
0.00222784
0.00222821
0.00222853
0.00222881
0.00222905
0.00222925
0.00222942
0.00222957
0.00222968
0.00222977
0.00222983
0.00222987
0.00222991
0.00222994
0.00218211
0.00218217
0.00218227
0.00218241
0.0021826
0.00218284
0.00218314
0.00218349
0.00218389
0.00218436
0.0021849
0.00218552
0.00218625
0.00218712
0.00218818
0.00218951
0.00219125
0.00219364
0.00219722
0.00220279
0.00221228
0.00222887
0.00224994
0.00230163
0.00240603
0.00250159
0.00344016
0.00456644
0.0035533
0.029367
0.131938
0.159534
0.160407
0.00382879
0.00236597
0.00230691
0.00221752
0.00218892
0.00217829
0.00217774
0.00217773
0.0021781
0.0021785
0.00217892
0.00217934
0.00217973
0.00218009
0.00218041
0.00218069
0.00218093
0.00218113
0.00218131
0.00218145
0.00218157
0.00218167
0.00218175
0.0021818
0.00218183
0.00218186
0.00218189
0.00213573
0.0021358
0.00213589
0.00213604
0.00213624
0.00213649
0.00213679
0.00213715
0.00213757
0.00213805
0.00213862
0.00213926
0.00214002
0.00214093
0.00214203
0.00214339
0.00214523
0.00214782
0.00215174
0.00215777
0.00216856
0.00218609
0.00221222
0.00226978
0.00239712
0.00253032
0.00349196
0.00468024
0.0044593
0.00928603
0.0415087
0.0793085
0.264107
0.0126567
0.00240728
0.00229813
0.00218531
0.00214976
0.0021344
0.00213276
0.00213254
0.00213276
0.00213305
0.00213338
0.00213372
0.00213404
0.00213433
0.0021346
0.00213483
0.00213503
0.00213521
0.00213535
0.00213547
0.00213557
0.00213565
0.00213571
0.00213575
0.00213578
0.0021358
0.00213583
0.00209119
0.00209126
0.00209136
0.00209151
0.00209171
0.00209196
0.00209228
0.00209264
0.00209307
0.00209357
0.00209414
0.00209481
0.00209557
0.00209646
0.00209757
0.00209902
0.00210096
0.00210368
0.00210782
0.00211415
0.00212589
0.00214451
0.00217855
0.00224507
0.00239173
0.00261032
0.00343929
0.00468111
0.00508049
0.00496405
0.0135274
0.034523
0.212182
0.0282433
0.00256108
0.00228714
0.00215998
0.00211444
0.00209307
0.00208971
0.0020892
0.00208925
0.00208945
0.0020897
0.00208997
0.00209022
0.00209045
0.00209066
0.00209085
0.00209101
0.00209114
0.00209126
0.00209135
0.00209143
0.00209149
0.00209153
0.00209156
0.00209158
0.0020916
0.00209162
0.00204839
0.00204846
0.00204856
0.00204871
0.00204891
0.00204917
0.00204949
0.00204986
0.00205029
0.00205079
0.00205136
0.00205202
0.00205277
0.00205368
0.00205483
0.00205631
0.00205828
0.00206105
0.0020653
0.00207182
0.00208409
0.00210408
0.00214942
0.00223155
0.00239216
0.00273959
0.00338204
0.00464742
0.00540827
0.0045115
0.00582437
0.0178217
0.169723
0.0387828
0.00286757
0.0022639
0.00213762
0.00208224
0.00205418
0.00204851
0.00204765
0.00204757
0.00204763
0.00204777
0.00204796
0.00204815
0.00204833
0.00204848
0.00204862
0.00204874
0.00204884
0.00204892
0.00204898
0.00204904
0.00204908
0.00204911
0.00204912
0.00204913
0.00204914
0.00204917
0.00200721
0.00200729
0.00200739
0.00200754
0.00200774
0.002008
0.00200832
0.00200869
0.00200913
0.00200962
0.00201016
0.0020108
0.00201157
0.00201251
0.00201367
0.00201514
0.0020171
0.00201986
0.00202411
0.00203074
0.0020431
0.00206465
0.00212449
0.00223223
0.00240937
0.00293316
0.00356361
0.00479793
0.00563062
0.00531757
0.00561733
0.0159194
0.152999
0.0410423
0.00317144
0.00222845
0.0021151
0.00205186
0.00201734
0.00200909
0.00200775
0.00200751
0.00200748
0.00200749
0.00200758
0.0020077
0.00200784
0.00200795
0.00200805
0.00200812
0.00200818
0.00200823
0.00200827
0.0020083
0.00200832
0.00200833
0.00200834
0.00200834
0.00200834
0.00200837
0.00196758
0.00196766
0.00196776
0.00196791
0.00196811
0.00196837
0.00196869
0.00196906
0.00196948
0.00196995
0.00197049
0.00197114
0.00197192
0.00197285
0.00197399
0.00197543
0.00197735
0.00198005
0.0019842
0.00199085
0.00200304
0.00202598
0.00210175
0.00224493
0.00248345
0.00323899
0.00553647
0.00871214
0.0115128
0.00943418
0.0065003
0.024156
0.138488
0.0389454
0.00332123
0.00219059
0.00209066
0.00202211
0.00198206
0.00197123
0.00196942
0.00196896
0.00196885
0.00196879
0.00196878
0.00196882
0.00196889
0.00196897
0.00196903
0.00196906
0.00196909
0.0019691
0.00196911
0.00196912
0.00196912
0.00196912
0.00196911
0.0019691
0.0019691
0.00196912
0.00192941
0.00192949
0.00192959
0.00192974
0.00192994
0.0019302
0.0019305
0.00193086
0.00193126
0.00193173
0.00193228
0.00193293
0.0019337
0.00193461
0.00193572
0.00193712
0.00193897
0.00194158
0.00194558
0.00195215
0.00196412
0.00198784
0.00207746
0.00225881
0.00254066
0.00527359
0.0142115
0.0146029
0.0127324
0.00793479
0.00836651
0.0416921
0.122088
0.0348081
0.00341017
0.0021648
0.00206415
0.0019921
0.00194795
0.00193475
0.00193251
0.00193188
0.00193164
0.00193151
0.00193144
0.00193141
0.00193142
0.00193144
0.00193147
0.00193147
0.00193146
0.00193145
0.00193143
0.00193141
0.00193139
0.00193137
0.00193135
0.00193133
0.00193132
0.00193134
0.00189262
0.00189269
0.00189279
0.00189294
0.00189314
0.00189339
0.00189367
0.00189401
0.00189442
0.0018949
0.00189545
0.00189609
0.00189683
0.00189772
0.00189879
0.00190014
0.00190191
0.00190443
0.00190826
0.00191472
0.00192646
0.00195044
0.00205054
0.00226524
0.00323684
0.01142
0.0187968
0.0131175
0.00952948
0.00744568
0.0155078
0.0615597
0.104213
0.0301336
0.00348292
0.00216299
0.00203625
0.00196129
0.0019147
0.00189953
0.0018969
0.00189616
0.00189584
0.00189558
0.00189544
0.00189534
0.00189532
0.0018953
0.00189528
0.00189526
0.00189522
0.00189517
0.00189513
0.00189509
0.00189505
0.00189501
0.00189498
0.00189495
0.00189494