/*--------------------------------*- C++ -*----------------------------------*\
  =========                 |
  \\      /  F ield         | OpenFOAM: The Open Source CFD Toolbox
   \\    /   O peration     | Website:  https://openfoam.org
    \\  /    A nd           | Version:  12
     \\/     M anipulation  |
\*---------------------------------------------------------------------------*/
FoamFile
{
    format      ascii;
    class       volScalarField;
    location    "320";
    object      nut;
}
// * * * * * * * * * * * * * * * * * * * * * * * * * * * * * * * * * * * * * //

dimensions      [0 2 -1 0 0 0 0];

internalField   nonuniform List<scalar> 
16227
(
0.000978543
0.000978543
0.000978543
0.000978543
0.000978543
0.000978543
0.000978543
0.000978543
0.000978543
0.000978543
0.000978543
0.000978543
0.000978544
0.000978544
0.000978544
0.000978544
0.000978544
0.000978544
0.000978544
0.000978544
0.000978544
0.000978544
0.000978544
0.000978544
0.000978544
0.000978544
0.000978544
0.000978544
0.000978544
0.000978544
0.000978544
0.000978544
0.000978544
0.000978544
0.000978544
0.000978544
0.000978544
0.000978544
0.000978544
0.000978544
0.000978544
0.000978544
0.000978544
0.000978544
0.000978544
0.000978544
0.000978544
0.000978544
0.000978544
0.000978544
0.000978544
0.000978543
0.000978543
0.000978543
0.000978543
0.000978543
0.000978543
0.000978543
0.000978543
0.000978543
0.000972834
0.000972834
0.000972834
0.000972834
0.000972834
0.000972834
0.000972834
0.000972834
0.000972834
0.000972834
0.000972835
0.000972835
0.000972836
0.000972836
0.000972837
0.000972837
0.000972837
0.000972837
0.000972837
0.000972837
0.000972837
0.000972837
0.000972837
0.000972837
0.000972837
0.000972837
0.000972837
0.000972837
0.000972836
0.000972836
0.000972837
0.000972837
0.000972837
0.000972837
0.000972837
0.000972837
0.000972836
0.000972836
0.000972836
0.000972836
0.000972836
0.000972837
0.000972837
0.000972836
0.000972836
0.000972836
0.000972836
0.000972836
0.000972836
0.000972836
0.000972836
0.000972836
0.000972835
0.000972835
0.000972834
0.000972834
0.000972835
0.000972834
0.000972834
0.000972834
0.000967494
0.000967494
0.000967494
0.000967494
0.000967494
0.000967495
0.000967495
0.000967495
0.000967495
0.000967495
0.000967495
0.000967495
0.000967497
0.000967498
0.000967498
0.000967498
0.000967498
0.000967498
0.000967498
0.000967498
0.000967498
0.000967498
0.000967498
0.000967498
0.000967498
0.000967498
0.000967498
0.000967498
0.000967498
0.000967497
0.000967498
0.000967498
0.000967498
0.000967498
0.000967498
0.000967498
0.000967498
0.000967498
0.000967498
0.000967498
0.000967498
0.000967498
0.000967498
0.000967498
0.000967498
0.000967498
0.000967498
0.000967498
0.000967498
0.000967497
0.000967497
0.000967495
0.000967495
0.000967495
0.000967495
0.000967495
0.000967495
0.000967494
0.000967494
0.000967494
0.000962481
0.000962481
0.000962482
0.000962482
0.000962482
0.000962482
0.000962482
0.000962482
0.000962482
0.000962482
0.000962482
0.000962483
0.000962485
0.000962486
0.000962486
0.000962486
0.000962487
0.000962487
0.000962486
0.000962485
0.000962486
0.000962486
0.000962486
0.000962486
0.000962486
0.000962486
0.000962486
0.000962486
0.000962485
0.000962485
0.000962485
0.000962485
0.000962485
0.000962485
0.000962485
0.000962485
0.000962485
0.000962485
0.000962485
0.000962485
0.000962485
0.000962485
0.000962485
0.000962486
0.000962486
0.000962485
0.000962486
0.000962486
0.000962486
0.000962485
0.000962484
0.000962482
0.000962482
0.000962482
0.000962482
0.000962482
0.000962482
0.000962481
0.000962481
0.000962481
0.00095776
0.00095776
0.000957761
0.000957761
0.000957761
0.000957761
0.000957762
0.000957761
0.000957761
0.000957761
0.000957762
0.000957762
0.000957765
0.000957766
0.000957766
0.000957766
0.000957766
0.000957766
0.000957764
0.000957763
0.000957765
0.000957766
0.000957765
0.000957765
0.000957765
0.000957765
0.000957765
0.000957764
0.000957764
0.000957763
0.000957764
0.000957764
0.000957764
0.000957764
0.000957764
0.000957764
0.000957764
0.000957764
0.000957764
0.000957764
0.000957764
0.000957764
0.000957764
0.000957764
0.000957764
0.000957765
0.000957765
0.000957765
0.000957765
0.000957764
0.000957761
0.00095776
0.00095776
0.00095776
0.000957761
0.000957761
0.00095776
0.00095776
0.00095776
0.00095776
0.000953301
0.000953301
0.000953301
0.000953301
0.000953302
0.000953302
0.000953303
0.000953302
0.000953302
0.000953302
0.000953302
0.000953302
0.000953303
0.000953307
0.000953307
0.000953308
0.000953308
0.000953306
0.000953304
0.000953303
0.000953306
0.000953306
0.000953306
0.000953305
0.000953305
0.000953305
0.000953304
0.000953304
0.000953303
0.000953302
0.000953303
0.000953303
0.000953303
0.000953303
0.000953303
0.000953303
0.000953303
0.000953303
0.000953303
0.000953303
0.000953303
0.000953304
0.000953304
0.000953304
0.000953304
0.000953304
0.000953305
0.000953305
0.000953305
0.000953303
0.000953301
0.0009533
0.0009533
0.0009533
0.000953301
0.000953301
0.0009533
0.0009533
0.0009533
0.0009533
0.000949078
0.000949078
0.000949078
0.000949078
0.000949078
0.000949079
0.000949079
0.000949079
0.000949079
0.000949079
0.000949079
0.000949079
0.00094908
0.000949083
0.000949084
0.000949085
0.000949084
0.000949081
0.000949079
0.000949079
0.000949082
0.000949082
0.000949081
0.000949081
0.00094908
0.00094908
0.000949079
0.000949078
0.000949078
0.000949076
0.000949077
0.000949077
0.000949076
0.000949076
0.000949076
0.000949076
0.000949077
0.000949077
0.000949077
0.000949077
0.000949078
0.000949078
0.000949078
0.000949079
0.000949079
0.00094908
0.00094908
0.00094908
0.00094908
0.000949077
0.000949075
0.000949075
0.000949075
0.000949076
0.000949076
0.000949076
0.000949076
0.000949075
0.000949075
0.000949075
0.000945069
0.000945069
0.000945069
0.000945069
0.000945069
0.000945069
0.00094507
0.00094507
0.00094507
0.000945069
0.000945069
0.000945069
0.000945069
0.000945071
0.000945074
0.000945075
0.000945075
0.00094507
0.000945069
0.000945069
0.000945071
0.000945071
0.00094507
0.000945069
0.000945068
0.000945067
0.000945067
0.000945066
0.000945064
0.000945063
0.000945063
0.000945063
0.000945063
0.000945063
0.000945063
0.000945063
0.000945063
0.000945063
0.000945064
0.000945064
0.000945065
0.000945065
0.000945066
0.000945066
0.000945067
0.000945067
0.000945068
0.000945068
0.000945067
0.000945064
0.000945063
0.000945063
0.000945064
0.000945064
0.000945065
0.000945065
0.000945064
0.000945064
0.000945064
0.000945064
0.000941254
0.000941254
0.000941254
0.000941254
0.000941254
0.000941255
0.000941255
0.000941255
0.000941255
0.000941255
0.000941254
0.000941254
0.000941254
0.000941255
0.000941259
0.000941261
0.000941258
0.000941254
0.000941253
0.000941252
0.000941255
0.000941254
0.000941253
0.000941252
0.00094125
0.000941249
0.000941248
0.000941246
0.000941245
0.000941242
0.000941243
0.000941243
0.000941242
0.000941242
0.000941242
0.000941242
0.000941242
0.000941243
0.000941243
0.000941244
0.000941245
0.000941246
0.000941246
0.000941247
0.000941248
0.000941249
0.00094125
0.000941249
0.000941246
0.000941245
0.000941245
0.000941246
0.000941246
0.000941247
0.000941247
0.000941248
0.000941247
0.000941247
0.000941247
0.000941247
0.000937617
0.000937617
0.000937617
0.000937617
0.000937617
0.000937618
0.000937618
0.000937618
0.000937618
0.000937618
0.000937617
0.000937616
0.000937616
0.000937618
0.000937621
0.000937623
0.000937618
0.000937615
0.000937614
0.000937613
0.000937615
0.000937615
0.000937613
0.000937611
0.000937609
0.000937607
0.000937605
0.000937604
0.000937601
0.000937599
0.000937599
0.000937598
0.000937598
0.000937597
0.000937597
0.000937598
0.000937598
0.000937599
0.000937599
0.0009376
0.000937601
0.000937602
0.000937604
0.000937605
0.000937606
0.000937607
0.000937608
0.000937608
0.000937605
0.000937604
0.000937604
0.000937605
0.000937606
0.000937607
0.000937607
0.000937608
0.000937608
0.000937607
0.000937608
0.000937608
0.000934143
0.000934143
0.000934143
0.000934143
0.000934144
0.000934144
0.000934144
0.000934144
0.000934144
0.000934144
0.000934143
0.000934142
0.000934141
0.000934142
0.000934144
0.000934147
0.000934142
0.00093414
0.000934138
0.000934137
0.000934138
0.000934137
0.000934135
0.000934133
0.00093413
0.000934128
0.000934125
0.000934123
0.00093412
0.000934117
0.000934116
0.000934116
0.000934115
0.000934114
0.000934114
0.000934114
0.000934115
0.000934116
0.000934117
0.000934118
0.00093412
0.000934121
0.000934123
0.000934124
0.000934126
0.000934127
0.000934127
0.000934126
0.000934125
0.000934125
0.000934126
0.000934127
0.000934128
0.000934129
0.00093413
0.00093413
0.00093413
0.00093413
0.00093413
0.00093413
0.000930819
0.000930819
0.000930819
0.000930819
0.00093082
0.00093082
0.00093082
0.00093082
0.00093082
0.00093082
0.000930819
0.000930819
0.000930817
0.000930817
0.000930818
0.00093082
0.000930817
0.000930814
0.000930812
0.00093081
0.000930809
0.000930809
0.000930807
0.000930804
0.0009308
0.000930797
0.000930794
0.00093079
0.000930787
0.000930783
0.000930782
0.000930781
0.00093078
0.00093078
0.000930779
0.00093078
0.00093078
0.000930781
0.000930783
0.000930784
0.000930786
0.000930788
0.00093079
0.000930792
0.000930794
0.000930796
0.000930795
0.000930795
0.000930795
0.000930795
0.000930796
0.000930798
0.000930799
0.0009308
0.000930801
0.000930802
0.000930802
0.000930802
0.000930803
0.000930803
0.000927634
0.000927634
0.000927634
0.000927634
0.000927634
0.000927635
0.000927635
0.000927635
0.000927635
0.000927635
0.000927634
0.000927633
0.000927632
0.00092763
0.00092763
0.00092763
0.000927629
0.000927627
0.000927624
0.000927622
0.000927619
0.000927619
0.000927616
0.000927612
0.000927608
0.000927604
0.000927599
0.000927595
0.000927591
0.000927587
0.000927585
0.000927584
0.000927582
0.000927581
0.000927581
0.000927581
0.000927582
0.000927583
0.000927585
0.000927587
0.00092759
0.000927592
0.000927595
0.000927598
0.0009276
0.000927601
0.000927601
0.000927602
0.000927602
0.000927603
0.000927604
0.000927606
0.000927608
0.00092761
0.000927611
0.000927612
0.000927612
0.000927612
0.000927613
0.000927613
0.000924576
0.000924577
0.000924577
0.000924577
0.000924577
0.000924577
0.000924578
0.000924578
0.000924578
0.000924577
0.000924577
0.000924576
0.000924574
0.000924573
0.000924572
0.000924571
0.000924571
0.000924568
0.000924565
0.000924562
0.000924558
0.000924558
0.000924554
0.000924549
0.000924543
0.000924538
0.000924533
0.000924527
0.000924522
0.000924517
0.000924515
0.000924513
0.000924511
0.00092451
0.000924509
0.00092451
0.000924511
0.000924512
0.000924514
0.000924517
0.00092452
0.000924523
0.000924526
0.000924529
0.000924531
0.000924532
0.000924534
0.000924536
0.000924537
0.000924538
0.00092454
0.000924542
0.000924545
0.000924546
0.000924548
0.000924549
0.000924549
0.00092455
0.00092455
0.000924551
0.000921638
0.000921638
0.000921638
0.000921638
0.000921639
0.000921639
0.000921639
0.00092164
0.00092164
0.000921639
0.000921639
0.000921638
0.000921636
0.000921635
0.000921633
0.000921632
0.000921632
0.000921629
0.000921625
0.000921621
0.000921616
0.000921615
0.00092161
0.000921603
0.000921597
0.00092159
0.000921584
0.000921577
0.000921571
0.000921565
0.000921562
0.000921559
0.000921557
0.000921555
0.000921555
0.000921555
0.000921556
0.000921558
0.000921561
0.000921564
0.000921568
0.000921571
0.000921575
0.000921578
0.000921579
0.000921582
0.000921585
0.000921587
0.000921589
0.000921591
0.000921594
0.000921597
0.000921599
0.000921601
0.000921603
0.000921605
0.000921605
0.000921606
0.000921606
0.000921607
0.00091881
0.00091881
0.000918811
0.000918811
0.000918811
0.000918812
0.000918812
0.000918812
0.000918812
0.000918812
0.000918812
0.000918811
0.000918809
0.000918808
0.000918806
0.000918805
0.000918804
0.0009188
0.000918796
0.000918791
0.000918785
0.000918782
0.000918777
0.000918769
0.000918761
0.000918753
0.000918745
0.000918737
0.00091873
0.000918722
0.000918718
0.000918715
0.000918712
0.00091871
0.000918709
0.00091871
0.000918711
0.000918713
0.000918716
0.00091872
0.000918724
0.000918729
0.000918733
0.000918737
0.000918738
0.000918742
0.000918746
0.000918748
0.000918751
0.000918754
0.000918758
0.000918761
0.000918764
0.000918767
0.000918769
0.00091877
0.000918771
0.000918772
0.000918773
0.000918773
0.000916086
0.000916086
0.000916086
0.000916086
0.000916087
0.000916087
0.000916088
0.000916088
0.000916089
0.000916089
0.000916088
0.000916087
0.000916086
0.000916084
0.000916082
0.000916081
0.00091608
0.000916076
0.00091607
0.000916064
0.000916058
0.000916051
0.000916046
0.000916038
0.000916029
0.000916019
0.00091601
0.000916
0.000915991
0.000915982
0.000915977
0.000915973
0.000915969
0.000915967
0.000915966
0.000915966
0.000915968
0.00091597
0.000915974
0.000915978
0.000915983
0.000915988
0.000915992
0.000915996
0.000916
0.000916004
0.000916009
0.000916012
0.000916016
0.00091602
0.000916024
0.000916028
0.000916032
0.000916035
0.000916037
0.000916039
0.00091604
0.000916041
0.000916042
0.000916042
0.000913457
0.000913458
0.000913458
0.000913458
0.000913459
0.00091346
0.000913461
0.000913461
0.000913462
0.000913462
0.000913462
0.000913461
0.00091346
0.000913458
0.000913456
0.000913454
0.000913453
0.000913449
0.000913443
0.000913436
0.000913428
0.00091342
0.000913414
0.000913405
0.000913394
0.000913383
0.000913372
0.000913361
0.00091335
0.000913339
0.000913333
0.000913327
0.000913322
0.000913319
0.000913318
0.000913318
0.00091332
0.000913323
0.000913327
0.000913332
0.000913338
0.000913343
0.000913346
0.000913351
0.000913357
0.000913363
0.000913368
0.000913373
0.000913377
0.000913382
0.000913387
0.000913391
0.000913395
0.000913398
0.000913401
0.000913404
0.000913405
0.000913406
0.000913407
0.000913407
0.000910919
0.00091092
0.00091092
0.000910921
0.000910922
0.000910922
0.000910924
0.000910925
0.000910925
0.000910926
0.000910926
0.000910925
0.000910924
0.000910923
0.000910921
0.00091092
0.000910918
0.000910913
0.000910907
0.000910899
0.000910891
0.000910881
0.000910874
0.000910864
0.000910852
0.000910839
0.000910826
0.000910813
0.0009108
0.000910788
0.00091078
0.000910772
0.000910767
0.000910763
0.00091076
0.00091076
0.000910762
0.000910765
0.00091077
0.000910775
0.000910781
0.000910787
0.000910791
0.000910797
0.000910804
0.000910811
0.000910817
0.000910822
0.000910828
0.000910834
0.000910839
0.000910844
0.000910849
0.000910853
0.000910856
0.000910858
0.00091086
0.000910861
0.000910862
0.000910863
0.000908466
0.000908467
0.000908467
0.000908468
0.000908469
0.00090847
0.000908472
0.000908473
0.000908474
0.000908475
0.000908476
0.000908476
0.000908475
0.000908474
0.000908473
0.000908471
0.000908469
0.000908465
0.000908459
0.000908451
0.000908441
0.00090843
0.00090842
0.000908411
0.000908398
0.000908383
0.000908369
0.000908354
0.000908339
0.000908325
0.000908315
0.000908305
0.000908298
0.000908292
0.000908289
0.000908288
0.000908289
0.000908292
0.000908296
0.000908302
0.000908308
0.000908313
0.00090832
0.000908328
0.000908336
0.000908344
0.00090835
0.000908357
0.000908364
0.00090837
0.000908376
0.000908382
0.000908387
0.000908391
0.000908395
0.000908398
0.0009084
0.000908401
0.000908402
0.000908403
0.000906093
0.000906093
0.000906094
0.000906095
0.000906096
0.000906098
0.0009061
0.000906101
0.000906103
0.000906105
0.000906106
0.000906106
0.000906106
0.000906106
0.000906105
0.000906103
0.000906101
0.000906098
0.000906092
0.000906085
0.000906075
0.000906064
0.000906052
0.000906043
0.00090603
0.000906014
0.000905998
0.000905982
0.000905965
0.000905949
0.000905936
0.000905924
0.000905914
0.000905906
0.000905901
0.000905898
0.000905898
0.0009059
0.000905904
0.000905909
0.000905914
0.000905921
0.000905929
0.000905939
0.000905948
0.000905955
0.000905963
0.000905971
0.000905979
0.000905986
0.000905993
0.000905999
0.000906005
0.000906009
0.000906013
0.000906017
0.000906019
0.00090602
0.000906022
0.000906022
0.000903794
0.000903795
0.000903796
0.000903797
0.000903798
0.0009038
0.000903803
0.000903805
0.000903808
0.00090381
0.000903812
0.000903813
0.000903814
0.000903815
0.000903814
0.000903813
0.000903812
0.00090381
0.000903806
0.000903798
0.000903789
0.000903779
0.000903768
0.000903758
0.000903746
0.000903733
0.000903717
0.0009037
0.000903681
0.000903661
0.000903644
0.000903628
0.000903614
0.000903602
0.000903594
0.000903589
0.000903586
0.000903585
0.000903588
0.000903592
0.000903597
0.000903605
0.000903615
0.000903625
0.000903634
0.000903643
0.000903652
0.000903661
0.00090367
0.000903678
0.000903685
0.000903692
0.000903698
0.000903703
0.000903707
0.000903711
0.000903713
0.000903715
0.000903716
0.000903717
0.000901566
0.000901567
0.000901568
0.000901569
0.000901571
0.000901574
0.000901577
0.00090158
0.000901583
0.000901586
0.000901589
0.000901592
0.000901594
0.000901596
0.000901597
0.000901597
0.000901598
0.000901597
0.000901595
0.00090159
0.000901583
0.000901575
0.000901566
0.000901558
0.000901559
0.000901549
0.000901536
0.000901519
0.000901499
0.000901474
0.000901451
0.000901427
0.000901405
0.000901386
0.000901372
0.000901363
0.00090135
0.000901346
0.000901344
0.000901348
0.000901354
0.000901363
0.000901373
0.000901382
0.000901392
0.000901402
0.000901412
0.000901422
0.000901432
0.00090144
0.000901448
0.000901455
0.000901462
0.000901467
0.000901472
0.000901476
0.000901478
0.000901481
0.000901482
0.000901483
0.000899405
0.000899406
0.000899407
0.000899409
0.000899411
0.000899414
0.000899418
0.000899422
0.000899426
0.000899431
0.000899435
0.000899439
0.000899443
0.000899446
0.000899449
0.000899452
0.000899454
0.000899456
0.000899457
0.000899457
0.000899454
0.000899452
0.00089945
0.000899467
0.000900467
0.000900466
0.000900456
0.000900442
0.000900421
0.000900394
0.000900366
0.000900336
0.000900307
0.000900283
0.000900264
0.00090025
0.000899212
0.00089918
0.000899175
0.000899176
0.000899181
0.000899189
0.000899199
0.000899208
0.000899218
0.000899229
0.00089924
0.000899251
0.000899261
0.00089927
0.000899279
0.000899286
0.000899293
0.000899299
0.000899304
0.000899308
0.000899311
0.000899313
0.000899315
0.000899316
0.000897306
0.000897307
0.000897309
0.000897311
0.000897314
0.000897318
0.000897323
0.000897327
0.000897333
0.000897338
0.000897344
0.00089735
0.000897356
0.000897362
0.000897368
0.000897373
0.000897379
0.000897384
0.000897391
0.000897398
0.000897405
0.000897413
0.000897436
0.000898422
0.000898373
0.000898396
0.000898404
0.000898401
0.000898383
0.000898349
0.000898307
0.000898257
0.000898207
0.000898163
0.000898129
0.000898096
0.000898139
0.000897105
0.000897079
0.000897074
0.000897077
0.000897083
0.000897091
0.0008971
0.00089711
0.000897121
0.000897133
0.000897144
0.000897155
0.000897165
0.000897173
0.000897181
0.000897189
0.000897195
0.0008972
0.000897204
0.000897207
0.00089721
0.000897211
0.000897212
0.000895267
0.000895269
0.00089527
0.000895273
0.000895277
0.000895281
0.000895287
0.000895293
0.0008953
0.000895307
0.000895314
0.000895323
0.000895331
0.00089534
0.00089535
0.000895359
0.00089537
0.000895382
0.000895397
0.000895415
0.000895437
0.000895464
0.000895522
0.000896427
0.000896414
0.000896933
0.000896975
0.00089699
0.000896981
0.000896943
0.000896883
0.000896806
0.000896723
0.000896649
0.000896595
0.00089606
0.000896059
0.000895111
0.000895057
0.000895041
0.000895038
0.00089504
0.000895046
0.000895054
0.000895064
0.000895076
0.000895088
0.000895099
0.00089511
0.00089512
0.000895129
0.000895137
0.000895145
0.000895151
0.000895156
0.000895161
0.000895164
0.000895166
0.000895168
0.000895169
0.000893285
0.000893286
0.000893288
0.000893291
0.000893296
0.000893301
0.000893308
0.000893315
0.000893323
0.000893332
0.000893342
0.000893353
0.000893365
0.000893378
0.000893392
0.000893407
0.000893425
0.000893447
0.000893474
0.000893509
0.000893555
0.000893616
0.000893727
0.00089457
0.000894621
0.000895123
0.000895254
0.000895316
0.000895345
0.000895319
0.000895234
0.000895096
0.000894931
0.000894773
0.000894647
0.000894173
0.000894063
0.000893206
0.000893108
0.000893075
0.000893063
0.00089306
0.000893062
0.000893069
0.000893079
0.00089309
0.000893101
0.000893112
0.000893123
0.000893133
0.000893142
0.000893151
0.000893158
0.000893165
0.00089317
0.000893175
0.000893178
0.000893181
0.000893182
0.000893184
0.000891355
0.000891357
0.00089136
0.000891363
0.000891368
0.000891375
0.000891382
0.000891391
0.000891401
0.000891412
0.000891425
0.000891439
0.000891454
0.000891472
0.000891492
0.000891515
0.000891543
0.000891578
0.000891622
0.000891682
0.000891765
0.000891885
0.000892081
0.000892892
0.00089305
0.000893583
0.000893893
0.00089408
0.000894236
0.000894286
0.000894177
0.000893908
0.000893544
0.000893178
0.000892874
0.000892442
0.000892166
0.00089139
0.000891233
0.000891175
0.000891151
0.000891141
0.000891139
0.000891144
0.000891151
0.000891161
0.000891171
0.000891182
0.000891192
0.000891202
0.000891211
0.00089122
0.000891227
0.000891234
0.000891239
0.000891244
0.000891247
0.00089125
0.000891251
0.000891253
0.000889477
0.000889479
0.000889482
0.000889486
0.000889492
0.000889499
0.000889508
0.000889518
0.00088953
0.000889543
0.000889559
0.000889576
0.000889596
0.00088962
0.000889647
0.00088968
0.000889721
0.000889773
0.000889843
0.00088994
0.000890076
0.000890294
0.000890628
0.000891447
0.000891816
0.000892506
0.000893185
0.000893798
0.000894419
0.00089478
0.000894618
0.000893927
0.000892977
0.000892072
0.000891368
0.000890864
0.00089039
0.00088966
0.000889432
0.000889341
0.000889301
0.000889282
0.000889274
0.000889274
0.000889279
0.000889286
0.000889296
0.000889305
0.000889315
0.000889325
0.000889333
0.000889341
0.000889349
0.000889355
0.000889361
0.000889365
0.000889368
0.000889371
0.000889373
0.000889374
0.000887646
0.000887648
0.000887651
0.000887656
0.000887663
0.000887671
0.000887681
0.000887693
0.000887707
0.000887723
0.000887742
0.000887763
0.000887788
0.000887818
0.000887855
0.000887899
0.000887956
0.000888032
0.000888135
0.000888285
0.0008885
0.000888874
0.000889421
0.000890314
0.000891127
0.000892174
0.000893766
0.00089585
0.000898363
0.00090014
0.000899747
0.000897303
0.000894337
0.000891964
0.000890365
0.00088943
0.000888764
0.000888007
0.000887702
0.000887576
0.000887513
0.000887481
0.000887465
0.000887459
0.00088746
0.000887465
0.000887472
0.00088748
0.000887489
0.000887498
0.000887506
0.000887514
0.000887521
0.000887527
0.000887532
0.000887536
0.000887539
0.000887542
0.000887544
0.000887545
0.000885861
0.000885863
0.000885867
0.000885872
0.00088588
0.000885889
0.000885901
0.000885915
0.000885931
0.00088595
0.000885972
0.000885997
0.000886028
0.000886066
0.000886112
0.00088617
0.000886248
0.000886352
0.0008865
0.000886721
0.000887046
0.000887659
0.00088851
0.000889585
0.000891269
0.000893051
0.000897065
0.000904352
0.00091598
0.00092632
0.000924377
0.000912208
0.000900823
0.000893985
0.000890326
0.000888236
0.000887318
0.000886418
0.000886034
0.000885875
0.000885782
0.000885736
0.000885709
0.000885696
0.000885692
0.000885693
0.000885698
0.000885704
0.000885712
0.000885719
0.000885727
0.000885734
0.00088574
0.000885746
0.000885751
0.000885755
0.000885758
0.00088576
0.000885762
0.000885763
0.000884119
0.000884122
0.000884126
0.000884132
0.00088414
0.000884151
0.000884164
0.000884179
0.000884198
0.000884219
0.000884245
0.000884276
0.000884312
0.000884358
0.000884416
0.000884491
0.000884591
0.000884731
0.000884933
0.000885247
0.000885717
0.000886669
0.000887924
0.000889358
0.000892532
0.000895801
0.000906268
0.00091368
0.000403654
0.000267182
0.000288821
0.000479207
0.000922341
0.000900371
0.000891862
0.000887577
0.000886057
0.000884888
0.000884416
0.000884232
0.000884106
0.000884043
0.000884005
0.000883984
0.000883974
0.000883971
0.000883972
0.000883976
0.000883982
0.000883988
0.000883994
0.000884
0.000884006
0.000884011
0.000884016
0.000884019
0.000884022
0.000884024
0.000884026
0.000884027
0.000882419
0.000882422
0.000882426
0.000882433
0.000882442
0.000882454
0.000882468
0.000882485
0.000882506
0.000882531
0.00088256
0.000882596
0.000882639
0.000882694
0.000882764
0.000882856
0.000882984
0.000883165
0.000883432
0.000883858
0.00088451
0.000885894
0.00088762
0.000889674
0.00089504
0.000901226
0.00092707
0.00046271
0.000177443
9.2579e-05
0.000114574
0.000211969
0.000544239
0.000914077
0.000895212
0.000887863
0.000884951
0.000883417
0.000882836
0.000882639
0.000882479
0.0008824
0.000882348
0.000882318
0.000882302
0.000882294
0.000882291
0.000882293
0.000882296
0.0008823
0.000882305
0.00088231
0.000882316
0.00088232
0.000882324
0.000882327
0.00088233
0.000882332
0.000882333
0.000882334
0.000880758
0.000880761
0.000880766
0.000880773
0.000880783
0.000880796
0.000880812
0.000880831
0.000880854
0.000880881
0.000880914
0.000880955
0.000881005
0.000881069
0.000881152
0.000881264
0.00088142
0.000881647
0.000881988
0.000882546
0.000883408
0.000885288
0.000887472
0.000890475
0.000898565
0.000909472
0.000957877
0.000406337
0.000260732
0.000160411
0.000430142
0.000932985
0.000899128
0.000889204
0.000883936
0.000882016
0.000881288
0.000881088
0.000880898
0.000880802
0.000880738
0.000880698
0.000880674
0.000880661
0.000880654
0.000880652
0.000880653
0.000880655
0.000880659
0.000880662
0.000880666
0.00088067
0.000880673
0.000880676
0.000880678
0.00088068
0.000880681
0.000880683
0.000879135
0.000879138
0.000879143
0.000879151
0.000879162
0.000879175
0.000879193
0.000879213
0.000879238
0.000879269
0.000879306
0.000879351
0.000879408
0.000879481
0.000879578
0.000879709
0.000879896
0.000880172
0.000880592
0.000881293
0.000882387
0.000884775
0.000887322
0.000891632
0.00090267
0.000919016
0.000992264
0.000487873
3.34199e-05
0.000542935
0.000454121
0.000574033
0.000946072
0.00090127
0.000891133
0.00088299
0.000880715
0.000879783
0.000879579
0.000879362
0.00087925
0.000879172
0.000879122
0.00087909
0.000879071
0.000879059
0.000879054
0.000879051
0.000879051
0.000879053
0.000879055
0.000879058
0.000879061
0.000879063
0.000879065
0.000879067
0.000879068
0.000879069
0.000879071
0.000877548
0.000877551
0.000877557
0.000877565
0.000877576
0.000877591
0.000877609
0.000877632
0.000877659
0.000877692
0.000877732
0.000877782
0.000877846
0.000877928
0.000878038
0.000878189
0.000878406
0.000878731
0.000879234
0.00088008
0.000881434
0.000884273
0.000887122
0.000892975
0.000907163
0.000926775
0.0010348
0.000760669
2.56042e-05
0.00754019
0.0124592
0.000617134
0.000652396
0.000953321
0.000901934
0.000893319
0.000882209
0.000879567
0.000878335
0.000878113
0.000877871
0.000877742
0.000877649
0.000877588
0.000877548
0.000877522
0.000877505
0.000877495
0.00087749
0.000877487
0.000877486
0.000877487
0.000877488
0.00087749
0.000877491
0.000877493
0.000877494
0.000877495
0.000877495
0.000877497
0.000875995
0.000875998
0.000876004
0.000876013
0.000876025
0.00087604
0.00087606
0.000876084
0.000876113
0.000876149
0.000876192
0.000876247
0.000876316
0.000876407
0.000876529
0.000876698
0.000876945
0.000877317
0.000877903
0.000878887
0.000880536
0.000883731
0.000886984
0.000894411
0.000912281
0.000931696
0.00107871
0.000885896
2.59363e-05
0.00520838
0.0227775
0.0107595
0.00144033
0.000973907
0.000905385
0.000896522
0.000881874
0.000878676
0.000876972
0.000876692
0.000876424
0.000876275
0.000876167
0.000876094
0.000876045
0.000876011
0.000875989
0.000875975
0.000875965
0.00087596
0.000875957
0.000875955
0.000875955
0.000875955
0.000875956
0.000875957
0.000875957
0.000875957
0.000875958
0.000875959
0.000874475
0.000874479
0.000874485
0.000874494
0.000874507
0.000874523
0.000874543
0.000874569
0.0008746
0.000874637
0.000874684
0.000874742
0.000874817
0.000874915
0.000875048
0.000875234
0.000875507
0.000875922
0.000876589
0.000877697
0.000879667
0.000883138
0.000887104
0.000896075
0.000918732
0.000938754
0.00111933
0.00103769
6.86731e-05
0.000753193
0.0158602
0.0258482
0.00818686
0.00123042
0.00091462
0.000901988
0.000882411
0.000878185
0.000875733
0.000875321
0.000875019
0.000874848
0.000874724
0.000874638
0.000874579
0.000874538
0.000874509
0.00087449
0.000874477
0.000874469
0.000874463
0.000874459
0.000874457
0.000874456
0.000874455
0.000874455
0.000874455
0.000874455
0.000874455
0.000874456
0.000872986
0.000872991
0.000872997
0.000873006
0.00087302
0.000873037
0.000873058
0.000873084
0.000873117
0.000873156
0.000873205
0.000873267
0.000873346
0.00087345
0.000873592
0.000873792
0.000874088
0.000874543
0.000875285
0.000876502
0.000878786
0.000882528
0.000887746
0.000898484
0.000926645
0.000955108
0.00114574
0.00117236
0.000216836
0.00023548
0.00267516
0.0145236
0.012699
0.00265296
0.000934703
0.000909199
0.000884196
0.000878211
0.000874661
0.000874001
0.000873655
0.000873457
0.000873317
0.000873217
0.000873148
0.000873099
0.000873064
0.00087304
0.000873023
0.000873011
0.000873003
0.000872997
0.000872993
0.00087299
0.000872988
0.000872987
0.000872986
0.000872985
0.000872985
0.000872986
0.000871528
0.000871533
0.000871539
0.000871549
0.000871563
0.00087158
0.000871603
0.00087163
0.000871664
0.000871705
0.000871756
0.00087182
0.000871902
0.000872011
0.00087216
0.000872372
0.000872689
0.000873175
0.000873983
0.000875296
0.000877854
0.000881938
0.000889173
0.000902474
0.000935653
0.000983195
0.0011528
0.00126757
0.000530499
0.000189911
0.000692269
0.00405268
0.0147213
0.00398121
0.000988869
0.000915598
0.000887219
0.000878774
0.000873788
0.000872732
0.000872326
0.0008721
0.000871942
0.000871829
0.00087175
0.000871693
0.000871652
0.000871623
0.000871602
0.000871586
0.000871575
0.000871567
0.000871561
0.000871556
0.000871553
0.000871551
0.000871549
0.000871547
0.000871547
0.000871548
0.000870099
0.000870104
0.000870111
0.000870121
0.000870135
0.000870153
0.000870176
0.000870204
0.000870239
0.000870281
0.000870333
0.000870399
0.000870484
0.000870596
0.000870751
0.000870973
0.000871305
0.000871816
0.000872675
0.000874077
0.000876842
0.000881384
0.000891563
0.000909079
0.00094635
0.00102284
0.00115871
0.00133307
0.00093598
0.000309978
0.000335875
0.00161444
0.0162789
0.00459395
0.0010884
0.000919018
0.000890602
0.000879699
0.000873114
0.000871515
0.000871029
0.000870773
0.000870599
0.000870471
0.000870383
0.000870318
0.000870271
0.000870237
0.000870211
0.000870192
0.000870178
0.000870167
0.000870159
0.000870153
0.000870148
0.000870145
0.000870142
0.00087014
0.000870139
0.00087014
0.000868699
0.000868703
0.00086871
0.00086872
0.000868735
0.000868753
0.000868777
0.000868806
0.000868841
0.000868884
0.000868936
0.000869003