/*--------------------------------*- C++ -*----------------------------------*\
  =========                 |
  \\      /  F ield         | OpenFOAM: The Open Source CFD Toolbox
   \\    /   O peration     | Website:  https://openfoam.org
    \\  /    A nd           | Version:  12
     \\/     M anipulation  |
\*---------------------------------------------------------------------------*/
FoamFile
{
    format      ascii;
    class       volScalarField;
    location    "320";
    object      omega;
}
// * * * * * * * * * * * * * * * * * * * * * * * * * * * * * * * * * * * * * //

dimensions      [0 0 -1 0 0 0 0];

internalField   nonuniform List<scalar> 
16227
(
9.34702
9.34704
9.34704
9.34707
9.34706
9.3471
9.34709
9.34708
9.34707
9.34709
9.34713
9.34715
9.3472
9.3472
9.3472
9.3472
9.3472
9.3472
9.3472
9.3472
9.3472
9.3472
9.3472
9.3472
9.3472
9.3472
9.3472
9.34722
9.34722
9.3472
9.34721
9.3472
9.3472
9.3472
9.34721
9.3472
9.3472
9.3472
9.3472
9.3472
9.3472
9.3472
9.3472
9.3472
9.3472
9.3472
9.3472
9.34719
9.34717
9.34717
9.34717
9.34716
9.3471
9.3471
9.34706
9.34705
9.34707
9.34705
9.34703
9.34702
8.71805
8.71807
8.71807
8.7181
8.71811
8.71814
8.71813
8.7181
8.71811
8.71812
8.71817
8.71819
8.71833
8.71839
8.7184
8.7184
8.7184
8.7184
8.7184
8.7184
8.71841
8.71843
8.71843
8.71843
8.71842
8.71843
8.71842
8.71842
8.7184
8.71835
8.71841
8.71842
8.71843
8.71843
8.71842
8.71841
8.7184
8.7184
8.7184
8.7184
8.7184
8.71841
8.71841
8.71839
8.71839
8.71838
8.71838
8.71838
8.71838
8.71837
8.71834
8.71829
8.71818
8.71817
8.71813
8.71811
8.71815
8.71807
8.71808
8.71806
8.16619
8.16621
8.16622
8.16623
8.16622
8.16631
8.16627
8.16625
8.16626
8.16627
8.16632
8.16633
8.16657
8.16663
8.16664
8.16665
8.16665
8.16665
8.16667
8.16662
8.16665
8.16666
8.16666
8.16665
8.16665
8.16665
8.16665
8.16666
8.16664
8.16658
8.16663
8.16665
8.16665
8.16665
8.16666
8.16666
8.16666
8.16665
8.16665
8.16665
8.16665
8.16666
8.16665
8.16664
8.16664
8.16664
8.16663
8.16664
8.16663
8.16661
8.16657
8.16638
8.16631
8.1663
8.16628
8.16627
8.1663
8.16621
8.16623
8.1662
7.67831
7.67833
7.67833
7.67835
7.67835
7.67842
7.67842
7.67838
7.67839
7.67838
7.67843
7.67849
7.67874
7.67881
7.67883
7.67884
7.67884
7.67886
7.6788
7.67867
7.67878
7.67882
7.67881
7.67881
7.67882
7.67881
7.67881
7.6788
7.67878
7.67869
7.67877
7.67879
7.67879
7.67879
7.67879
7.6788
7.67881
7.67881
7.67882
7.67881
7.67882
7.67882
7.67882
7.67883
7.67882
7.67882
7.67883
7.67882
7.67883
7.6788
7.67869
7.6785
7.6784
7.67843
7.67842
7.67844
7.67842
7.67835
7.67835
7.67833
7.24408
7.24409
7.2441
7.24412
7.24412
7.24418
7.24421
7.24414
7.24416
7.24416
7.24419
7.24425
7.24449
7.24461
7.24463
7.24463
7.24463
7.24461
7.2444
7.24433
7.24451
7.24457
7.24457
7.24455
7.24454
7.24452
7.24451
7.24451
7.24448
7.24438
7.24447
7.24449
7.2445
7.2445
7.2445
7.24451
7.24453
7.24454
7.24455
7.24456
7.24457
7.24459
7.24459
7.2446
7.2446
7.24462
7.24462
7.24462
7.24462
7.24455
7.24431
7.24421
7.24414
7.24417
7.24419
7.24424
7.24418
7.24411
7.24411
7.24409
6.85525
6.85527
6.85526
6.85528
6.85528
6.85533
6.85537
6.85532
6.8553
6.85529
6.8553
6.85534
6.85545
6.85573
6.85579
6.8558
6.85579
6.85569
6.85545
6.85541
6.85561
6.85566
6.85564
6.85562
6.8556
6.85559
6.85557
6.85554
6.85551
6.85541
6.85549
6.85551
6.85552
6.85553
6.85554
6.85556
6.85558
6.8556
6.85562
6.85564
6.85566
6.85568
6.85569
6.85572
6.85573
6.85575
6.85576
6.85577
6.85577
6.85564
6.85542
6.85531
6.85528
6.85533
6.85538
6.85537
6.85532
6.85526
6.85526
6.85524
6.50516
6.50518
6.50517
6.50518
6.50518
6.50522
6.50526
6.50525
6.50521
6.5052
6.50518
6.50518
6.50528
6.50554
6.50566
6.50568
6.50564
6.50535
6.50522
6.50521
6.50542
6.50545
6.50541
6.50538
6.50535
6.50531
6.50528
6.50525
6.50521
6.50509
6.50518
6.5052
6.5052
6.50522
6.50524
6.50526
6.50529
6.50533
6.50536
6.5054
6.50543
6.50546
6.5055
6.50552
6.50556
6.50558
6.5056
6.50563
6.50557
6.50532
6.5052
6.50513
6.50514
6.50522
6.50523
6.50523
6.50519
6.50514
6.50515
6.50513
6.18839
6.18839
6.18839
6.18841
6.1884
6.18843
6.18847
6.18847
6.18843
6.18839
6.18837
6.18833
6.18837
6.1885
6.18877
6.18885
6.18877
6.18843
6.18832
6.18829
6.1885
6.18852
6.18846
6.1884
6.18834
6.18829
6.18825
6.18821
6.18814
6.18802
6.1881
6.18813
6.18814
6.18816
6.18818
6.18822
6.18826
6.1883
6.18835
6.1884
6.18847
6.18851
6.18856
6.18861
6.18866
6.18869
6.18873
6.18875
6.18864
6.18841
6.1883
6.18828
6.18834
6.18839
6.1884
6.1884
6.18837
6.18832
6.18834
6.18832
5.90046
5.90046
5.90047
5.90047
5.90047
5.90049
5.90052
5.90051
5.9005
5.90044
5.9004
5.90034
5.90035
5.90044
5.90077
5.90085
5.90068
5.90035
5.90024
5.9002
5.90039
5.90038
5.9003
5.90021
5.90014
5.90007
5.9
5.89994
5.89986
5.89972
5.8998
5.89982
5.89984
5.89986
5.8999
5.89994
5.9
5.90007
5.90013
5.9002
5.90027
5.90035
5.90042
5.90048
5.90054
5.90062
5.90066
5.90062
5.90038
5.90028
5.90023
5.90029
5.90032
5.90038
5.90039
5.9004
5.90038
5.90034
5.90035
5.90035
5.63767
5.63768
5.63767
5.63768
5.63766
5.63769
5.63771
5.63769
5.63767
5.63765
5.63758
5.6375
5.6375
5.63759
5.63784
5.63791
5.63759
5.63737
5.63727
5.63722
5.63737
5.63734
5.63723
5.63712
5.63702
5.63692
5.63683
5.63674
5.63665
5.63649
5.63657
5.63658
5.63659
5.63663
5.63667
5.63673
5.63681
5.63689
5.63699
5.63707
5.63717
5.63726
5.63737
5.63746
5.63755
5.63763
5.63769
5.63763
5.63739
5.63732
5.63734
5.63738
5.63743
5.63749
5.63751
5.63753
5.63751
5.63749
5.63749
5.63749
5.39691
5.39691
5.39691
5.3969
5.3969
5.39691
5.39693
5.3969
5.39688
5.39685
5.3968
5.39669
5.39663
5.39666
5.39675
5.39693
5.39662
5.39644
5.39632
5.39624
5.39631
5.39629
5.39616
5.39602
5.39587
5.39574
5.39562
5.39551
5.3954
5.39522
5.39528
5.3953
5.39532
5.39535
5.39541
5.39549
5.39559
5.39569
5.39581
5.39593
5.39605
5.39618
5.39631
5.39642
5.39653
5.39662
5.39663
5.39654
5.39642
5.39639
5.39643
5.39649
5.39654
5.39662
5.39665
5.39668
5.39667
5.39664
5.39666
5.39666
5.17555
5.17555
5.17555
5.17555
5.17554
5.17555
5.17555
5.17554
5.1755
5.17546
5.1754
5.17531
5.17521
5.17518
5.17522
5.17535
5.17511
5.17491
5.17475
5.17462
5.17453
5.17458
5.17446
5.17427
5.17409
5.17393
5.17377
5.17363
5.17349
5.1733
5.17335
5.17336
5.17338
5.17342
5.17349
5.17359
5.1737
5.17384
5.17398
5.17413
5.17429
5.17445
5.1746
5.17476
5.17488
5.17496
5.17489
5.17489
5.17487
5.17486
5.17492
5.175
5.17507
5.17514
5.17519
5.17522
5.17522
5.1752
5.17522
5.17522
4.97138
4.97139
4.97138
4.97138
4.97137
4.97138
4.97137
4.97135
4.97131
4.97125
4.9712
4.97109
4.97099
4.97088
4.97082
4.97079
4.97071
4.97056
4.97037
4.97019
4.97002
4.97007
4.96991
4.96969
4.96946
4.96925
4.96905
4.96888
4.96871
4.9685
4.96853
4.96853
4.96855
4.96861
4.96869
4.96881
4.96895
4.96911
4.9693
4.96948
4.96968
4.96988
4.97006
4.97024
4.97039
4.97046
4.97042
4.97048
4.97047
4.9705
4.97058
4.97067
4.97076
4.97084
4.9709
4.97094
4.97095
4.97094
4.97096
4.97096
4.78251
4.78252
4.78251
4.7825
4.78249
4.78249
4.78248
4.78245
4.78241
4.78235
4.78228
4.78217
4.78205
4.78193
4.78179
4.78173
4.78167
4.7815
4.78127
4.78105
4.78083
4.78084
4.78063
4.78035
4.78008
4.77981
4.77957
4.77936
4.77915
4.77891
4.77893
4.77892
4.77894
4.779
4.77911
4.77925
4.77943
4.77963
4.77985
4.78008
4.78031
4.78054
4.78077
4.78097
4.78108
4.78114
4.78123
4.78132
4.78135
4.78142
4.78152
4.78163
4.78173
4.78182
4.78189
4.78195
4.78196
4.78197
4.78199
4.78198
4.60728
4.60729
4.60728
4.60727
4.60726
4.60726
4.60725
4.60722
4.60717
4.60711
4.60703
4.60691
4.60678
4.60664
4.6065
4.60639
4.60631
4.6061
4.60583
4.60557
4.6053
4.60524
4.60498
4.60464
4.60431
4.60399
4.6037
4.60343
4.60318
4.60291
4.60291
4.6029
4.60292
4.60299
4.60312
4.60329
4.6035
4.60375
4.60401
4.60428
4.60456
4.60484
4.6051
4.6053
4.60536
4.60552
4.60567
4.6058
4.60588
4.60598
4.60611
4.60623
4.60635
4.60646
4.60653
4.6066
4.60662
4.60664
4.60666
4.60666
4.44431
4.44431
4.44431
4.4443
4.44429
4.44429
4.44428
4.44423
4.44419
4.44412
4.44402
4.4439
4.44377
4.44361
4.44345
4.44332
4.4432
4.44296
4.44264
4.44233
4.44201
4.44183
4.44155
4.44116
4.44075
4.44037
4.44001
4.43969
4.4394
4.43909
4.43907
4.43904
4.43907
4.43916
4.43931
4.43952
4.43977
4.44006
4.44037
4.44069
4.44102
4.44135
4.44165
4.44185
4.44196
4.44216
4.44235
4.44248
4.44261
4.44277
4.44293
4.44308
4.44321
4.44333
4.44342
4.44349
4.44352
4.44354
4.44357
4.44357
4.29236
4.29236
4.29236
4.29235
4.29234
4.29234
4.29232
4.29228
4.29223
4.29216
4.29207
4.29193
4.29179
4.29161
4.29143
4.29127
4.29113
4.29084
4.29049
4.2901
4.28971
4.28934
4.28909
4.28867
4.2882
4.28773
4.2873
4.28692
4.28657
4.28623
4.28617
4.28613
4.28616
4.28627
4.28645
4.2867
4.28701
4.28735
4.28771
4.28809
4.28848
4.28884
4.28912
4.28933
4.28957
4.28983
4.29007
4.29023
4.29039
4.2906
4.29078
4.29095
4.29109
4.29123
4.29133
4.29141
4.29145
4.29147
4.29151
4.29151
4.15037
4.15037
4.15037
4.15036
4.15035
4.15035
4.15033
4.15029
4.15024
4.15017
4.15007
4.14993
4.14977
4.14959
4.14938
4.1492
4.14902
4.14871
4.1483
4.14785
4.14738
4.1469
4.14661
4.14612
4.14556
4.14501
4.1445
4.14404
4.14363
4.14324
4.14315
4.1431
4.14314
4.14327
4.14349
4.14378
4.14415
4.14454
4.14498
4.14542
4.14586
4.14624
4.14647
4.1468
4.14713
4.14746
4.14773
4.14794
4.14815
4.14837
4.14859
4.14877
4.14893
4.14908
4.1492
4.14928
4.14933
4.14937
4.1494
4.14941
4.0174
4.0174
4.0174
4.01739
4.01739
4.01738
4.01738
4.01734
4.01729
4.01721
4.01711
4.01697
4.0168
4.01661
4.01638
4.01618
4.01596
4.0156
4.01517
4.01465
4.01411
4.01356
4.01312
4.01258
4.01193
4.01128
4.01067
4.01013
4.00964
4.00919
4.00907
4.00901
4.00905
4.00921
4.00947
4.00983
4.01025
4.01073
4.01122
4.01173
4.01223
4.01265
4.01294
4.01334
4.01374
4.0141
4.01438
4.01464
4.01491
4.01518
4.01541
4.01561
4.01579
4.01596
4.01608
4.01618
4.01623
4.01628
4.01631
4.01633
3.89263
3.89263
3.89263
3.89263
3.89262
3.89263
3.89262
3.89258
3.89254
3.89246
3.89237
3.89223
3.89206
3.89185
3.89162
3.89137
3.89111
3.89073
3.89025
3.88968
3.88905
3.88839
3.88774
3.88719
3.88647
3.88571
3.88499
3.88434
3.88377
3.88326
3.8831
3.88302
3.88308
3.88327
3.88359
3.88401
3.88451
3.88506
3.88562
3.88616
3.88669
3.88715
3.88761
3.88809
3.88856
3.88895
3.88927
3.88958
3.88989
3.89019
3.89044
3.89067
3.89086
3.89104
3.89117
3.89127
3.89134
3.89139
3.89143
3.89145
3.77533
3.77534
3.77534
3.77534
3.77534
3.77535
3.77534
3.77532
3.77528
3.77521
3.77512
3.77498
3.77481
3.77459
3.77433
3.77403
3.77373
3.77336
3.77284
3.77222
3.77152
3.77075
3.76996
3.76932
3.76849
3.7676
3.76675
3.76598
3.7653
3.76472
3.7645
3.76441
3.76448
3.76472
3.76511
3.76561
3.7662
3.76682
3.76745
3.76807
3.76861
3.76918
3.76977
3.77033
3.77084
3.77125
3.77162
3.772
3.77236
3.77268
3.77296
3.7732
3.77341
3.7736
3.77374
3.77386
3.77393
3.77399
3.77403
3.77404
3.66487
3.66487
3.66488
3.66489
3.66489
3.6649
3.6649
3.66489
3.66485
3.66479
3.66471
3.66458
3.66441
3.6642
3.66393
3.66361
3.66327
3.66288
3.66232
3.66164
3.66086
3.66
3.65909
3.65829
3.65734
3.65631
3.6553
3.65439
3.65359
3.65291
3.65263
3.65253
3.65262
3.65292
3.65339
3.65399
3.65466
3.65536
3.6561
3.65682
3.65746
3.65813
3.6588
3.65942
3.65997
3.66042
3.66085
3.66128
3.66167
3.66201
3.66232
3.66257
3.6628
3.663
3.66315
3.66328
3.66336
3.66342
3.66346
3.66348
3.56066
3.56067
3.56067
3.56068
3.56069
3.56071
3.56073
3.56072
3.5607
3.56065
3.56058
3.56046
3.56031
3.5601
3.55983
3.5595
3.55913
3.5587
3.55812
3.55739
3.55653
3.55556
3.55453
3.5535
3.55256
3.55135
3.55017
3.54908
3.54813
3.54732
3.54698
3.54686
3.54698
3.54734
3.54791
3.54863
3.54932
3.55013
3.55092
3.55175
3.55256
3.55336
3.5541
3.55476
3.55533
3.55586
3.55637
3.55684
3.55726
3.55762
3.55795
3.55822
3.55846
3.55867
3.55883
3.55896
3.55905
3.55912
3.55916
3.55918
3.46219
3.4622
3.46221
3.46223
3.46225
3.46228
3.4623
3.46231
3.4623
3.46227
3.46221
3.46211
3.46197
3.46178
3.46152
3.46118
3.46077
3.46029
3.45971
3.45896
3.45803
3.45697
3.45582
3.45521
3.50156
3.50031
3.49901
3.49779
3.49674
3.49584
3.49544
3.49531
3.49544
3.49584
3.49647
3.49726
3.45008
3.45064
3.45158
3.45254
3.45348
3.45437
3.45517
3.45586
3.45649
3.45709
3.45766
3.45816
3.45861
3.459
3.45934
3.45963
3.45988
3.4601
3.46027
3.46041
3.46051
3.46057
3.46062
3.46064
3.36901
3.36902
3.36904
3.36907
3.36909
3.36913
3.36917
3.36919
3.3692
3.36919
3.36916
3.36907
3.36896
3.36879
3.36854
3.36821
3.36779
3.36727
3.36667
3.36592
3.36496
3.36382
3.36313
3.40713
3.404
3.40271
3.40116
3.39967
3.39836
3.39726
3.39671
3.39652
3.39667
3.39715
3.39791
3.39875
3.40153
3.35686
3.35763
3.35871
3.35975
3.36071
3.36157
3.36232
3.36301
3.36367
3.36427
3.36481
3.36528
3.36569
3.36605
3.36635
3.36661
3.36684
3.36702
3.36716
3.36726
3.36733
3.36738
3.3674
3.28071
3.28072
3.28074
3.28077
3.28082
3.28087
3.28092
3.28096
3.28099
3.28101
3.281
3.28094
3.28086
3.28071
3.2805
3.2802
3.27979
3.27927
3.27866
3.2779
3.27692
3.27574
3.27544
3.31517
3.3121
3.33293
3.33124
3.32952
3.32796
3.32664
3.32597
3.32569
3.32584
3.32639
3.32724
3.30578
3.30836
3.26801
3.26863
3.26982
3.27094
3.27196
3.27286
3.27369
3.27446
3.27517
3.27581
3.27637
3.27686
3.27728
3.27765
3.27797
3.27824
3.27847
3.27866
3.2788
3.2789
3.27898
3.27903
3.27905
3.19691
3.19692
3.19695
3.19699
3.19704
3.19711
3.19718
3.19724
3.1973
3.19734
3.19736
3.19734
3.19729
3.19719
3.19702
3.19676
3.19639
3.1959
3.19528
3.19451
3.19356
3.19244
3.19258
3.22839
3.22544
3.24415
3.24235
3.24021
3.23827
3.23665
3.2357
3.23528
3.23538
3.23595
3.23678
3.21799
3.21996
3.18383
3.18426
3.18551
3.1867
3.18776
3.18874
3.18964
3.19048
3.19123
3.19189
3.19247
3.19298
3.19342
3.1938
3.19412
3.1944
3.19463
3.19482
3.19497
3.19508
3.19515
3.19521
3.19523
3.11727
3.11729
3.11733
3.11738
3.11744
3.11753
3.11761
3.1177
3.11778
3.11785
3.11791
3.11793
3.11793
3.11788
3.11776
3.11756
3.11726
3.11683
3.11625
3.11551
3.11461
3.11365
3.11431
3.14668
3.14381
3.16059
3.15878
3.15624
3.15395
3.15203
3.15083
3.15017
3.15007
3.15043
3.1512
3.13473
3.13619
3.10398
3.10417
3.10544
3.10669
3.10783
3.10889
3.10986
3.11073
3.11151
3.11219
3.11279
3.11331
3.11376
3.11415
3.11448
3.11475
3.11499
3.11519
3.11533
3.11544
3.11552
3.11557
3.1156
3.04151
3.04153
3.04158
3.04163
3.04171
3.04181
3.04192
3.04203
3.04214
3.04225
3.04234
3.04242
3.04247
3.04247
3.04243
3.0423
3.04209
3.04176
3.04128
3.04065
3.03986
3.03916
3.04046
3.06984
3.06735
3.08264
3.08078
3.07848
3.07641
3.07458
3.07301
3.07155
3.07051
3.07006
3.07037
3.05597
3.05688
3.02814
3.02806
3.02934
3.03067
3.0319
3.03302
3.03403
3.03493
3.03572
3.03642
3.03703
3.03755
3.03801
3.0384
3.03873
3.03901
3.03925
3.03944
3.03959
3.0397
3.03977
3.03983
3.03985
2.96934
2.96936
2.96941
2.96948
2.96957
2.96969
2.96981
2.96995
2.9701
2.97024
2.97038
2.97051
2.97062
2.9707
2.97073
2.97071
2.97061
2.97041
2.9701
2.96967
2.96911
2.96886
2.97094
2.99781
2.99637
3.01042
3.00994
3.00989
3.01117
3.01175
3.00932
3.00413
2.99898
2.99592
2.99462
2.98138
2.9818
2.95605
2.95576
2.95704
2.95842
2.9597
2.96085
2.96188
2.96279
2.96359
2.9643
2.96491
2.96544
2.96589
2.96628
2.96661
2.96689
2.96713
2.96732
2.96747
2.96757
2.96765
2.9677
2.96773
2.9005
2.90054
2.90059
2.90067
2.90077
2.9009
2.90106
2.90122
2.9014
2.90158
2.90177
2.90195
2.90213
2.90229
2.90242
2.90251
2.90255
2.90253
2.90244
2.9023
2.90213
2.90261
2.90567
2.93051
2.93134
2.94517
2.94933
2.96026
2.98161
3.00139
2.99473
2.96699
2.9431
2.93049
2.92504
2.91116
2.9108
2.88746
2.88704
2.88831
2.88968
2.89097
2.89212
2.89316
2.89407
2.89487
2.89558
2.89618
2.89671
2.89716
2.89755
2.89788
2.89815
2.89838
2.89857
2.89871
2.89882
2.89889
2.89894
2.89897
2.83478
2.83482
2.83488
2.83497
2.83509
2.83524
2.83541
2.8356
2.83581
2.83604
2.83627
2.83651
2.83676
2.83701
2.83725
2.83747
2.83768
2.83787
2.83806
2.8383
2.83867
2.84022
2.84459
2.86809
2.87263
2.88825
2.90669
2.96243
3.121
3.34809
3.29392
3.06081
2.92664
2.87915
2.86325
2.84573
2.8437
2.82229
2.82165
2.82287
2.8242
2.82547
2.82662
2.82764
2.82855
2.82934
2.83003
2.83064
2.83115
2.8316
2.83197
2.83229
2.83256
2.83278
2.83296
2.8331
2.8332
2.83327
2.83332
2.83335
2.77197
2.77201
2.77207
2.77217
2.7723
2.77247
2.77267
2.77288
2.77313
2.7734
2.77368
2.77398
2.7743
2.77464
2.77499
2.77536
2.77575
2.77618
2.7767
2.77741
2.77847
2.78137
2.78726
2.81048
2.82055
2.84126
2.89605
3.13059
4.22166
8.86655
7.46368
4.04172
3.03089
2.84902
2.80933
2.78617
2.78045
2.76021
2.75931
2.76049
2.76174
2.76299
2.76411
2.76512
2.766
2.76678
2.76745
2.76804
2.76854
2.76897
2.76934
2.76965
2.7699
2.77012
2.77029
2.77043
2.77052
2.77059
2.77064
2.77067
2.71187
2.71191
2.71198
2.71209
2.71224
2.71242
2.71264
2.71288
2.71315
2.71346
2.71379
2.71415
2.71455
2.71498
2.71544
2.71595
2.71654
2.71723
2.71811
2.71937
2.7212
2.72562
2.73303
2.7571
2.77399
2.80436
2.92863
3.68782
14.9763
12.3429
3.40137
2.83763
2.76035
2.73226
2.72054
2.70105
2.69978
2.70092
2.7021
2.70331
2.70439
2.70536
2.70622
2.70697
2.70762
2.70819
2.70867
2.70909
2.70944
2.70974
2.70998
2.71019
2.71036
2.71049
2.71058
2.71065
2.7107
2.71073
2.65431
2.65436
2.65443
2.65455
2.6547
2.6549
2.65514
2.65541
2.65571
2.65605
2.65643
2.65685
2.65731
2.65783
2.6584
2.65906
2.65984
2.6608
2.66205
2.66387
2.66653
2.67243
2.68113
2.70705
2.73125
2.77302
2.98817
4.983
327.669
197.611
14.2667
3.69306
2.82122
2.71
2.68251
2.66371
2.64474
2.64298
2.64406
2.64516
2.64632
2.64735
2.64827
2.64909
2.64981
2.65043
2.65097
2.65143
2.65182
2.65215
2.65243
2.65266
2.65286
2.65301
2.65314
2.65322
2.65328
2.65333
2.65336
2.59913
2.59918
2.59926
2.59939
2.59955
2.59976
2.60002
2.60031
2.60064
2.60101
2.60143
2.6019
2.60242
2.60302
2.6037
2.60449
2.60545
2.60665
2.60826
2.61061
2.61411
2.62131
2.63107
2.65939
2.69118
2.73896
3.03616
5.27567
241.537
3.70489
2.26251
10.5375
3.84039
2.79426
2.65857
2.63559
2.60986
2.59116
2.58872
2.58972
2.59074
2.59182
2.59279
2.59366
2.59443
2.5951
2.59568
2.59619
2.59662
2.59698
2.59729
2.59755
2.59776
2.59794
2.59808
2.5982
2.59828
2.59833
2.59837
2.5984
2.54618
2.54624
2.54633
2.54646
2.54663
2.54685
2.54712
2.54743
2.54778
2.54819
2.54864
2.54915
2.54973
2.55039
2.55116
2.55207
2.55318
2.55459
2.55651
2.55931
2.56364
2.57184
2.58272
2.61322
2.65345
2.69936
3.06468
4.89652
124.738
17.7562
9.8107
23.2087
5.99526
2.80757
2.61535
2.59303
2.55936
2.54037
2.53688
2.53772
2.53866
2.53966
2.54056
2.54136
2.54207
2.54269
2.54323
2.54369
2.54409
2.54443
2.54471
2.54494
2.54513
2.5453
2.54542
2.54552
2.54559
2.54564
2.54568
2.54571
2.49534
2.4954
2.49549
2.49562
2.4958
2.49604
2.49632
2.49664
2.49702
2.49744
2.49793
2.49847
2.49909
2.49981
2.50064
2.50162
2.50283
2.50438
2.50655
2.50973
2.51491
2.52381
2.53627
2.56857
2.61885
2.6648
3.0734
4.40057
51.7422
38.99
8.3188
6.17197
19.5932
3.11178
2.58683
2.55759
2.51302
2.49254
2.48739
2.48793
2.48877
2.48969
2.4905
2.49123
2.49188
2.49244
2.49293
2.49335
2.4937
2.49401
2.49426
2.49446
2.49464
2.49478
2.49489
2.49498
2.49504
2.49508
2.49511
2.49514
2.44646
2.44653
2.44662
2.44676
2.44695
2.44719
2.44748
2.44782
2.44821
2.44865
2.44916
2.44972
2.45037
2.45111
2.45198
2.45298
2.45425
2.45594
2.45833
2.46179
2.46767
2.47708
2.49195
2.52623
2.58688
2.64925
3.04778
3.99217
20.5653
39.4345
15.5164
5.46065
20.7976
4.77077
2.57544
2.52765
2.47152
2.44789
2.44027
2.44023
2.44094
2.44174
2.44247
2.44313
2.44371
2.44421
2.44465
2.44502
2.44533
2.4456
2.44582
2.446
2.44614
2.44627
2.44636
2.44644
2.44649
2.44652
2.44655
2.44657
2.39945
2.39952
2.39962
2.39976
2.39995
2.4002
2.40049
2.40084
2.40124
2.4017
2.40221
2.4028
2.40345
2.40417
2.40503
2.4061
2.40745
2.40923
2.41174
2.41535
2.42169
2.43158
2.45009
2.48768
2.55621
2.65494
2.98343
3.69296
9.57681
26.1388
19.5407
8.51855
14.4132
7.09414
2.58991
2.49797
2.43455
2.40612
2.39539
2.39445
2.39497
2.39566
2.39631
2.39692
2.39744
2.39788
2.39826
2.39858
2.39885
2.39908
2.39927
2.39942
2.39954
2.39964
2.39972
2.39978
2.39982
2.39984
2.39987
2.39989
2.3542
2.35427
2.35436
2.35451
2.3547
2.35495
2.35526
2.35561
2.35601
2.35647
2.35699
2.35756
2.3582
2.35894
2.35984
2.36093
2.3623
2.36409
2.36663
2.3703
2.37681
2.38725
2.41084
2.45473
2.52777
2.67842
2.91879
3.48625
5.77819
14.5542
17.3409
11.0389
10.4259
8.44215
2.63467
2.46339
2.4002
2.36699
2.3527
2.35051
2.35084
2.35144
2.35198
2.35248
2.35295
2.35333
2.35366
2.35394
2.35416
2.35435
2.3545
2.35462
2.35472
2.3548
2.35486
2.3549
2.35493
2.35495
2.35496
2.35499
2.3106
2.31067
2.31077
2.31091
2.31111
2.31136
2.31166
2.31202
2.31242
2.31287
2.31336
2.31392
2.31457
2.31534
2.31625
2.31733
2.31868
2.32044
2.32293
2.32659
2.333
2.344
2.37414
2.42869
2.5062
2.72294
2.935
3.3825
4.36459
8.36612
13.4259
10.1216
8.27687
8.81062
2.67766
2.42372
2.3667
2.32967
2.31197
2.3084
2.3084
2.30889
2.30935
2.30974
2.3101
2.31043
2.31073
2.31097
2.31115
2.3113
2.31142
2.31151
2.31158
2.31164
2.31168
2.3117
2.31172
2.31173
2.31173
2.31176
2.26857
2.26864
2.26874
2.26888
2.26908
2.26933
2.26963
2.26998
2.27038
2.2708
2.27128
2.27186
2.27252
2.27329
2.27417
2.27523
2.27653
2.27822
2.28061
2.28417
2.29033
2.3018
2.33904
2.40833
2.50852
2.79804
3.35018
3.92708
4.84709
7.70577
11.347
7.19293
7.24374
8.65621
2.68921
2.38345
2.33308
2.29346
2.27282
2.2679
2.26759
2.26788
2.26828
2.2686
2.26888
2.26913
2.26937
2.26957
2.26972
2.26983
2.26992
2.26998
2.27002
2.27006
2.27008
2.27009
2.27009
2.27009
2.27009
2.27011
2.22802
2.22809
2.22819
2.22834
2.22853
2.22878
2.22907
2.22941
2.22978
2.23021
2.23071
2.23128
2.23193
2.23268
2.23354
2.23455
2.2358
2.23741
2.23965
2.24307
2.24897
2.26063
2.30388
2.38863
2.49916
3.26739
4.37663
4.69724
5.63432
7.99202
8.76095
5.23348
6.73353
8.15362
2.69125
2.34942
2.29914
2.25785
2.235
2.22883
2.22827
2.22841
2.22867
2.22893
2.22915
2.22934
2.22951
2.22966
2.22978
2.22986
2.22991
2.22994
2.22996
2.22997
2.22997
2.22997
2.22996
2.22995
2.22995
2.22997
2.18888
2.18895
2.18905
2.18919
2.18938
2.18962
2.18989
2.19021
2.19059
2.19103
2.19153
2.19209
2.19272
2.19345
2.19428
2.19525
2.19643
2.19795
2.20005
2.20334
2.20901
2.22062
2.2682
2.36564
2.63457
4.0612
4.80367
4.93364
6.09626
7.43776
6.4335
4.14176
6.45067
7.516
2.6914
2.32703
2.26512
2.22252
2.1983
2.19109
2.19029
2.19035
2.19051
2.19065
2.19079
2.19091
2.19106
2.19117
2.19125
2.1913
2.19133
2.19133
2.19132
2.19131
2.19129
2.19127
2.19125
2.19123
2.19122
2.19124
2.15107
2.15114
2.15123
2.15137
2.15156
2.15178
2.15204
2.15237
2.15275
2.15318
2.15367
2.15422
2.15484
2.15554
2.15633
2.15726
2.15838
2.15981
2.16177
2.16497
2.17047
2.18206
2.23143
2.33641
2.97586
4.44022
4.92005
5.06881
5.89653
5.94403
4.56617
3.65005
6.27925
6.87216
2.68564
2.31866
2.23123
2.18734
2.16258
2.15459
2.15359
2.15358
2.15368
2.15375
2.15382
2.15388
2.15394
2.15401
2.15405
2.15407
2.15407
2.15405
2.15402
2.15398
2.15395
2.15391
2.15388
2.15385
2.15383
2.15385
2.11452
2.1146
2.11469
2.11482
2.11499
2.11521
2.11548
2.1158
2.11617
2.11659
2.11707
2.1176
2.1182
2.11888
2.11964
2.12053
2.12157
2.12292
2.12482
2.12793
2.13329
2.14475
2.19401
2.30528
3.30688
4.50976
4.889
5.0157
5.36531
4.50188
3.47551
3.62828
6.17871
6.30297
2.67646
2.32697
2.19758
2.15242
2.12779
2.11927
2.11811
2.11804
2.1181
2.1181
2.11813
2.11813
2.11812
2.11811
2.11812
2.11811
2.11808
2.11804
2.11799
2.11793
2.11788
2.11783
2.11778
2.11774
2.11772
2.11774
2.07918
2.07925
2.07934
2.07946
2.07963
2.07985
2.08012
2.08043
2.08079
2.0812
2.08167
2.08218
2.08276
2.08341
2.08415
2.085
2.08597
2.08729
2.08913
2.09216
2.0974
2.10866
2.15658
2.27349
3.53087
4.46658
4.7571
4.872
5.00426
4.00989
3.15016
3.90246
6.13419
5.85591
2.67663
2.35522
2.16414
2.11801
2.09399
2.0851
2.0838
2.08368
2.0837
2.08365
2.08363
2.08358
2.08353
2.08345
2.08339
2.08335
2.08329
2.08323
2.08316
2.08309
2.08301
2.08295
2.08289
2.08284
2.08282
2.08283
2.04498
2.04505
2.04513
2.04525
2.04542
2.04563
2.0459
2.0462
2.04655
2.04695
2.0474
2.0479
2.04846
2.04909
2.0498
2.05061
2.05155
2.05285
2.05463
2.05759
2.06271
2.07377
2.12017
2.23946
3.65346
4.38306
4.63291
4.6932
4.82548
3.98572
3.29979
4.52839
6.17917
5.62286
2.70231
2.40444
2.13105
2.0845
2.06128
2.05206
2.05063
2.05045
2.05044
2.05034
2.05026
2.05017
2.05007
2.04995
2.04984
2.04973
2.04965
2.04956
2.04947
2.04938
2.04929
2.04921
2.04914
2.04909
2.04906
2.04906
2.01188
2.01194
2.01202
2.01214
2.0123
2.01251
2.01277
2.01306
2.0134
2.01379
2.01422
2.01471
2.01525
2.01586
2.01653
2.0173
2.01823
2.0195
2.02123
2.02414
2.02913
2.03998
2.08505
2.20697
3.69666
4.29958
4.55769
4.57614
4.72885
4.1855
3.38934
4.91185
6.49082
5.86538
2.88926
2.45812
2.09912
2.05223
2.02977
2.02017
2.01857
2.01832
2.01826
2.01811
2.01798
2.01784
2.01769
2.01753
2.01738
2.01722
2.01708
2.01697
2.01686
2.01676
2.01666
2.01657
2.01649
2.01643
2.01639
2.01639
1.97981
1.97987
1.97995
1.98006
1.98022
1.98043
1.98067
1.98096
1.98129
1.98166
1.98208
1.98255
1.98307
1.98366
1.9843
1.98504
1.98595
1.9872
1.98887
1.99174
1.99659
2.00721
2.05123
2.17698
3.68887
4.24214
4.5149
4.5367
4.6628
4.3959
3.79302
4.79983
6.40202
6.29252
3.45298
2.48044
2.07003
2.02127
1.99952
1.98941
1.98759
1.98724
1.98713
1.98691
1.98674
1.98654
1.98634
1.98614
1.98595
1.98576
1.98558
1.98542
1.98529
1.98517
1.98505
1.98496
1.98487
1.9848
1.98475
1.98475
1.94873
1.9488
1.94887
1.94898
1.94914
1.94933
1.94957
1.94984
1.95016
1.95052
1.95093
1.95138
1.95188
1.95243
1.95304
1.95378
1.95466
1.95589
1.9575
1.96033
1.96502
1.97541
2.01869
2.14979
3.64562
4.22258
4.49658
4.55833
4.67251
4.59413
4.39848
5.15506
6.04169
6.3329
4.08357
2.50387
2.04386
1.99143
1.97045
1.95977
1.95765
1.95717
1.957
1.95671
1.95648
1.95622
1.95597
1.95573
1.9555
1.95527
1.95506
1.95486
1.9547
1.95456
1.95444
1.95433
1.95423
1.95415
1.9541
1.9541
1.91861
1.91867
1.91874
1.91885
1.91899
1.91918
1.91941
1.91968
1.91998
1.92033
1.92072
1.92115
1.92162
1.92214
1.92274
1.92347
1.92432
1.92552
1.92707
1.92984
1.93438
1.94453
1.98741
2.12523
3.58151
4.24188
4.50301
4.62301
4.76007
4.84335
5.16098
5.48682
5.81384
6.14607
4.43955
2.56936
2.01935
1.96241
1.9424
1.93115
1.9287
1.92807
1.92781
1.92745
1.92715
1.92683
1.92654
1.92625
1.92598
1.92572
1.92548
1.92526
1.92505
1.92488
1.92475
1.92463
1.92453
1.92444
1.92439
1.92439
1.88938
1.88945
1.88951
1.88962
1.88976
1.88994
1.89016
1.89041
1.89071
1.89104
1.89141
1.89182
1.89227
1.89276
1.89334
1.89405
1.89486
1.89603
1.89752
1.90023
1.90462
1.91454
1.95732
2.10268
3.50026
4.29692
4.54036
4.69293
4.82509
4.98759
5.66336
5.77499
5.6859
5.94186
4.51949
2.65709
1.99516
1.93407
1.91518
1.90346
1.90066
1.89987
1.89952
1.89907
1.89871
1.89833
1.89799
1.89766
1.89735
1.89705
1.89678
1.89654
1.89631
1.89612
1.89595
1.89582
1.89572
1.89563
1.89557
1.89557
1.86103
1.86109
1.86115
1.86125
1.86139
1.86156
1.86177
1.86201
1.86229
1.86261
1.86296
1.86335
1.86377
1.86425
1.86481
1.86548
1.86626
1.8674
1.86882
1.87146
1.87569
1.88539
1.92838
2.08158
3.41345
4.37731
4.62075
4.71413
4.80118
4.95392
5.58855
5.88916
5.59558
5.77529
4.43652
2.733
1.96997
1.90645
1.88863
1.87658
1.87347
1.87252
1.87208
1.87154
1.87111
1.87068
1.87028
1.86991
1.86956
1.86923
1.86894
1.86866
1.86842
1.86821
1.86802
1.86787
1.86776
1.86767
1.86761
1.8676
1.8335
1.83356
1.83362
1.83372
1.83385
1.83401
1.83421
1.83444
1.83471
1.83501
1.83535
1.83571
1.8361
1.83657
1.8371
1.83774
1.83848
1.83958
1.84094
1.8435
1.84757
1.85704
1.90043
2.06119
3.3312
4.56522
4.725
4.63147
4.6517
4.86015
5.42589
5.68565
5.51749
5.53325
3.95269
2.77302
1.943
1.87965
1.86262
1.85042
1.84704
1.84597
1.84543
1.84481
1.84431
1.84382
1.84338
1.84296
1.84258
1.84222
1.8419
1.8416
1.84134
1.84111
1.84091
1.84074
1.84061
1.84052
1.84046
1.84045
1.80677
1.80682
1.80688
1.80697
1.8071
1.80725
1.80744
1.80766
1.80792
1.8082
1.80852
1.80885
1.80923
1.80968
1.81018
1.81079
1.81149
1.81255
1.81384
1.81631
1.82024
1.82942
1.8745
2.29423
3.2512
4.61342
4.73861
4.50057
4.437
4.67896
5.19639
5.4091
5.30767
5.32388
3.84797
2.7791
1.88463
1.85348
1.8371
1.82491
1.82133
1.82016
1.81952
1.81883
1.81827
1.81773
1.81724
1.81678
1.81636
1.81598
1.81563
1.81531
1.81503
1.81478
1.81457
1.81439
1.81424
1.81414
1.81408
1.81407
1.7808
1.78085
1.78091
1.78099
1.78111
1.78126
1.78144
1.78165
1.78189
1.78215
1.78245
1.78276
1.78313
1.78355
1.78402
1.7846
1.78526
1.78626
1.7875
1.78988
1.79368
1.80251
1.84972
2.2697
3.46279
4.67696
4.5692
4.211
4.20548
4.49604
4.93855
4.95186
5.00579
4.77022
3.45012
2.40651
1.85956
1.82816
1.81211
1.80004
1.79629
1.79504
1.79432
1.79357
1.79295
1.79236
1.79183
1.79133
1.79088
1.79047
1.79009
1.78976
1.78945
1.78919
1.78897
1.78878
1.78863
1.78852
1.78845
1.78844
1.75556
1.75561
1.75566
1.75574
1.75585
1.75599
1.75616
1.75636
1.75659
1.75683
1.7571
1.7574
1.75775
1.75815
1.75859
1.75913
1.75976
1.76071
1.76189
1.76418
1.76788
1.77633
1.82612
2.24649
3.43033
4.63322
4.47449
4.05187
4.03803
4.30336
4.6654
4.68283
4.7596
4.57293
3.3747
2.37509
1.83497
1.80364
1.78764
1.77575
1.77189
1.77059
1.76979
1.76898
1.76831
1.76767
1.76711
1.76658
1.7661
1.76566
1.76526
1.76491
1.76459
1.76431
1.76408
1.76388
1.76372
1.7636
1.76353
1.76352
1.73102
1.73106
1.73111
1.73119
1.7313
1.73143
1.73159
1.73178
1.73199
1.73222
1.73247
1.73275
1.73308
1.73345
1.73387
1.73437
1.73496
1.73586
1.73699
1.73918
1.74281
1.75084
1.80376
2.22627
3.40648
4.58391
4.3712
3.90095
3.8857
4.12478
4.41667
4.4396
4.53511
4.38816
3.29926
2.34102
1.81092
1.77985
1.76368
1.75202
1.74809
1.74676
1.74589
1.74504
1.74432
1.74365
1.74305
1.74249
1.74198
1.74152
1.74111
1.74073
1.7404
1.74011
1.73986
1.73966
1.73949
1.73937
1.73929
1.73927
1.70715
1.70719
1.70724
1.70731
1.70741
1.70754
1.70769
1.70787
1.70806
1.70827
1.70851
1.70878
1.70909
1.70943
1.70982
1.71029
1.71084
1.71169
1.71278
1.71488
1.71844
1.72608
1.78448
2.21219
3.38505
4.52908
4.26289
3.75797
3.74515
3.95816
4.18974
4.21795
4.32917
4.21541
3.22445
2.30529
1.7874
1.7567
1.74023
1.72883
1.72487
1.72352
1.72259
1.72171
1.72095
1.72025
1.71962
1.71904
1.71851
1.71803
1.71759
1.7172
1.71686
1.71656
1.7163
1.71608
1.71591
1.71578
1.7157
1.71568
1.68393
1.68397
1.68402
1.68409
1.68418
1.6843
1.68444
1.68461
1.68479
1.68498
1.68521
1.68547
1.68575
1.68607
1.68643
1.68687
1.68739
1.68819
1.68924
1.69125
1.69475
1.7023
1.76833
2.20318
3.3679
4.46619
4.14865
3.62642
3.61384
3.80142
3.98222
4.01549
4.13986
4.05421
3.15075
2.26854
1.7644
1.73413
1.71729
1.70616
1.7022
1.70086
1.69988
1.69897
1.69818
1.69745
1.69679
1.69619
1.69564
1.69514
1.69469
1.69429
1.69393
1.69362
1.69336
1.69313
1.69295
1.69282
1.69273
1.69271
1.66134
1.66137