/*--------------------------------*- C++ -*----------------------------------*\
  =========                 |
  \\      /  F ield         | OpenFOAM: The Open Source CFD Toolbox
   \\    /   O peration     | Website:  https://openfoam.org
    \\  /    A nd           | Version:  12
     \\/     M anipulation  |
\*---------------------------------------------------------------------------*/
FoamFile
{
    format      ascii;
    class       volScalarField;
    location    "320";
    object      p;
}
// * * * * * * * * * * * * * * * * * * * * * * * * * * * * * * * * * * * * * //

dimensions      [0 2 -2 0 0 0 0];

internalField   nonuniform List<scalar> 
16227
(
0.0750825
0.0751783
0.075369
0.0756539
0.0760316
0.0765003
0.0770578
0.077701
0.0784263
0.0792293
0.080105
0.0810471
0.0820489
0.083103
0.0842008
0.0853328
0.0864888
0.0876575
0.088827
0.0899844
0.0911167
0.0922105
0.0932522
0.0942285
0.0951267
0.0959346
0.0966414
0.0972375
0.097715
0.0980679
0.0982923
0.0983866
0.0983513
0.0981891
0.0979047
0.0975048
0.096998
0.096394
0.0957039
0.0949398
0.0941143
0.0932402
0.0923305
0.0913983
0.0904559
0.0895154
0.0885881
0.0876847
0.0868151
0.0859881
0.0852119
0.0844937
0.08384
0.0832564
0.0827475
0.0823175
0.0819697
0.0817068
0.0815304
0.0814419
0.0750121
0.0751081
0.0752994
0.0755853
0.0759644
0.0764349
0.0769945
0.0776404
0.0783688
0.0791754
0.0800553
0.0810025
0.0820099
0.0830703
0.0841751
0.0853147
0.086479
0.0876565
0.0888353
0.0900024
0.0911447
0.0922484
0.0932999
0.0942857
0.0951927
0.0960088
0.0967226
0.0973246
0.0978066
0.0981626
0.0983884
0.0984824
0.0984452
0.0982794
0.0979901
0.0975841
0.09707
0.0964578
0.095759
0.0949856
0.0941505
0.0932668
0.0923477
0.0914062
0.0904549
0.0895061
0.088571
0.0876604
0.086784
0.085951
0.0851695
0.0844466
0.0837887
0.0832015
0.0826897
0.0822573
0.0819076
0.0816432
0.081466
0.081377
0.0748552
0.0749518
0.0751446
0.0754326
0.0758147
0.076289
0.0768534
0.0775051
0.0782404
0.0790551
0.0799443
0.0809026
0.0819226
0.0829968
0.0841169
0.0852735
0.086456
0.0876531
0.0888525
0.0900413
0.0912056
0.0923314
0.0934048
0.0944117
0.0953386
0.0961728
0.0969025
0.0975175
0.0980096
0.0983723
0.0986013
0.0986947
0.0986533
0.09848
0.0981799
0.0977602
0.09723
0.0965998
0.0958815
0.0950876
0.0942315
0.0933265
0.0923865
0.0914246
0.0904537
0.0894863
0.0885339
0.0876073
0.0867163
0.08587
0.0850766
0.0843432
0.0836762
0.0830812
0.0825628
0.082125
0.0817711
0.0815036
0.0813242
0.0812342
0.0745894
0.0746872
0.0748823
0.075174
0.0755609
0.0760416
0.0766138
0.0772751
0.0780218
0.0788501
0.079755
0.0807316
0.0817725
0.08287
0.0840159
0.0852007
0.086414
0.087644
0.0888783
0.0901038
0.0913055
0.0924691
0.0935798
0.0946228
0.0955837
0.0964488
0.0972057
0.0978434
0.0983528
0.0987271
0.0989616
0.0990543
0.099006
0.0988199
0.0985016
0.0980589
0.0975016
0.096841
0.0960897
0.0952611
0.0943694
0.0934286
0.0924531
0.0914568
0.0904529
0.0894543
0.0884727
0.0875191
0.0866035
0.085735
0.0849216
0.0841706
0.0834882
0.0828801
0.0823507
0.0819039
0.0815429
0.08127
0.0810872
0.0809955
0.0742201
0.0743195
0.0745178
0.0748143
0.075208
0.0756972
0.0762803
0.0769546
0.0777172
0.078564
0.0794906
0.0804924
0.0815622
0.082692
0.0838736
0.0850979
0.086354
0.0876299
0.0889131
0.09019
0.0914446
0.0926615
0.0938248
0.0949188
0.0959278
0.0968368
0.0976322
0.0983019
0.0988359
0.0992265
0.0994685
0.0995599
0.0995016
0.099297
0.0989526
0.098477
0.097881
0.097177
0.0963789
0.0955012
0.0945591
0.0935679
0.0925427
0.0914981
0.0904481
0.0894059
0.0883837
0.0873927
0.086443
0.0855437
0.0847028
0.0839276
0.0832243
0.0825982
0.0820537
0.0815945
0.0812238
0.0809437
0.0807561
0.080662
0.0737537
0.073855
0.0740572
0.0743598
0.0747617
0.0752616
0.075858
0.0765486
0.0773309
0.078201
0.0791546
0.0801876
0.0812938
0.0824646
0.0836917
0.0849661
0.0862768
0.0876113
0.0889572
0.0903001
0.0916227
0.0929083
0.0941398
0.0952999
0.0963713
0.0973373
0.0981827
0.0988939
0.0994595
0.0998709
0.100122
0.100211
0.100139
0.0999098
0.0995305
0.0990112
0.0983641
0.0976032
0.0967438
0.0958021
0.0947947
0.0937383
0.0926489
0.0915425
0.0904336
0.089336
0.0882624
0.0872241
0.0862315
0.0852935
0.0844182
0.0836127
0.0828833
0.0822349
0.0816717
0.0811973
0.0808145
0.0805255
0.080332
0.080235
0.0731881
0.0732916
0.0734983
0.0738079
0.0742193
0.0747318
0.0753438
0.0760536
0.0768589
0.0777567
0.0787426
0.0798125
0.0809622
0.0821825
0.0834648
0.0848
0.0861771
0.0875841
0.0890073
0.0904317
0.0918385
0.0932097
0.0945263
0.0957692
0.0969189
0.0979567
0.0988651
0.0996285
0.100234
0.100672
0.100934
0.10102
0.10093
0.100668
0.100244
0.0996691
0.098957
0.0981239
0.0971874
0.0961654
0.0950764
0.0939387
0.0927701
0.0915873
0.0904062
0.089241
0.0881047
0.0870092
0.0859647
0.0849802
0.0840639
0.0832224
0.0824618
0.0817868
0.0812015
0.080709
0.0803121
0.0800126
0.0798123
0.0797118
0.0725179
0.0726239
0.0728356
0.0731528
0.073575
0.0741014
0.074731
0.0754625
0.0762939
0.0772231
0.0782462
0.0793591
0.0805584
0.0818367
0.0831841
0.0845915
0.0860474
0.087541
0.0890573
0.0905802
0.0920895
0.0935651
0.094986
0.0963309
0.0975774
0.0987042
0.0996909
0.100519
0.101175
0.101645
0.101922
0.102003
0.101889
0.101588
0.101108
0.100463
0.09967
0.0987475
0.0977157
0.0965951
0.0954065
0.0941701
0.0929056
0.091631
0.0903633
0.0891175
0.087907
0.0867439
0.0856384
0.0845995
0.083635
0.0827519
0.0819554
0.0812498
0.080639
0.0801258
0.0797126
0.0794012
0.0791929
0.0790886
0.0717392
0.0718478
0.0720648
0.0723903
0.0728238
0.0733653
0.074014
0.0747691
0.0756293
0.0765932
0.0776579
0.0788193
0.0800742
0.0814184
0.0828407
0.0843316
0.0858799
0.0874748
0.0891007
0.0907407
0.0923725
0.0939736
0.0955208
0.0969895
0.0983544
0.0995902
0.100673
0.101582
0.102299
0.102809
0.103103
0.103178
0.103036
0.102684
0.102135
0.101405
0.100513
0.0994811
0.0983336
0.0970938
0.0957853
0.094431
0.0930525
0.0916696
0.0903002
0.0889602
0.0876635
0.0864223
0.0852467
0.0841457
0.0831267
0.0821963
0.0813591
0.0806192
0.0799798
0.0794434
0.0790121
0.0786874
0.0784703
0.0783616
0.0708499
0.0709612
0.0711836
0.0715175
0.0719628
0.0725199
0.0731886
0.0739687
0.0748597
0.0758608
0.0769705
0.0781855
0.0795024
0.0809194
0.0824259
0.084011
0.0856654
0.0873774
0.0891308
0.090908
0.0926844
0.0944348
0.0961328
0.0977506
0.0992585
0.100627
0.101828
0.102835
0.103626
0.104185
0.104501
0.104568
0.104391
0.103977
0.103342
0.102507
0.101494
0.100331
0.0990437
0.0976613
0.0962104
0.094717
0.093205
0.091696
0.090209
0.0887609
0.0873661
0.0860363
0.0847817
0.0836108
0.0825314
0.0815486
0.0806667
0.0798891
0.0792184
0.0786568
0.0782058
0.0778666
0.0776401
0.0775267
0.0698481
0.0699619
0.0701896
0.0705319
0.0709889
0.0715616
0.0722506
0.0730564
0.0739793
0.0750195
0.0761767
0.077449
0.0788334
0.0803292
0.0819288
0.0836193
0.0853934
0.0872391
0.0891391
0.0910753
0.0930211
0.0949474
0.0968246
0.0986207
0.100301
0.101829
0.103173
0.104299
0.105182
0.105801
0.106142
0.106199
0.105977
0.105487
0.104748
0.103784
0.102625
0.101302
0.0998482
0.0982964
0.0966777
0.0950216
0.0933547
0.0917006
0.0900796
0.0885092
0.0870038
0.0855753
0.0842335
0.082986
0.0818405
0.0808008
0.0798706
0.0790524
0.0783483
0.0777598
0.077288
0.0769335
0.076697
0.0765786
0.0687314
0.0688476
0.0690802
0.0694303
0.0698985
0.0704862
0.0711949
0.0720261
0.0729811
0.0740613
0.0752674
0.0765997
0.0780559
0.0796355
0.0813363
0.0831441
0.0850516
0.0870475
0.0891142
0.0912324
0.0933753
0.0955083
0.0975976
0.099606
0.101493
0.103215
0.104732
0.106004
0.106998
0.10769
0.108061
0.108104
0.107826
0.107242
0.106373
0.105253
0.103916
0.102402
0.100749
0.0989969
0.0971816
0.0953366
0.0934916
0.0916721
0.0898998
0.0881924
0.0865644
0.0850274
0.0835904
0.0822606
0.0810441
0.0799438
0.0789623
0.0781015
0.0773624
0.076746
0.0762525
0.0758823
0.0756355
0.075512
0.0674972
0.0676154
0.0678523
0.0682091
0.0686872
0.0692885
0.0700155
0.0708708
0.0718569
0.0729765
0.0742319
0.0756254
0.0771564
0.078825
0.0806325
0.082568
0.0846228
0.0867864
0.0890411
0.0913663
0.0937363
0.0961109
0.0984509
0.100712
0.102847
0.104804
0.106531
0.107981
0.109112
0.109892
0.110299
0.110325
0.109977
0.109274
0.108247
0.106935
0.105382
0.103637
0.101748
0.0997592
0.0977144
0.0956513
0.0936029
0.0915967
0.0896553
0.0877963
0.0860341
0.0843791
0.0828403
0.0814229
0.0801315
0.0789678
0.0779333
0.0770284
0.0762536
0.0756088
0.0750935
0.0747074
0.0744502
0.0743216
0.0661429
0.0662627
0.0665027
0.0668648
0.0673508
0.0679635
0.0687063
0.069583
0.0705976
0.0717545
0.0730578
0.0745119
0.076119
0.0778802
0.0797986
0.0818702
0.0840853
0.0864343
0.0889
0.0914611
0.0940917
0.0967471
0.099382
0.101945
0.104378
0.106618
0.108603
0.110272
0.111571
0.112459
0.112909
0.112911
0.112474
0.111624
0.1104
0.108853
0.107038
0.105016
0.102844
0.100577
0.098265
0.0959516
0.0936725
0.0914571
0.0893284
0.0873038
0.0853966
0.0836162
0.0819696
0.0804604
0.0790914
0.0778627
0.0767742
0.0758251
0.0750147
0.0743417
0.0738048
0.0734031
0.0731359
0.0730023
0.0646665
0.0647871
0.0650289
0.0653941
0.0658854
0.0665062
0.067261
0.0681551
0.069194
0.0703841
0.0717316
0.0732435
0.0749254
0.0767806
0.0788141
0.0810279
0.0834141
0.085965
0.0886651
0.0914928
0.0944218
0.097403
0.100384
0.103306
0.106098
0.108684
0.110985
0.112923
0.114431
0.115453
0.115955
0.115925
0.115375
0.11434
0.112871
0.111033
0.108898
0.106541
0.104032
0.101438
0.0988174
0.096218
0.0936794
0.0912316
0.0888976
0.0866939
0.0846323
0.0827206
0.0809621
0.0793586
0.0779111
0.0766172
0.0754753
0.0744829
0.0736379
0.0729379
0.0723805
0.0719641
0.0716873
0.0715489
0.0630669
0.0631874
0.0634291
0.0637948
0.0642877
0.0649123
0.065674
0.0665797
0.0676368
0.0688537
0.0702393
0.0718034
0.0735553
0.0755023
0.0776522
0.0800121
0.0825784
0.0853461
0.0883034
0.0914296
0.094698
0.0980573
0.101446
0.104795
0.108021
0.11103
0.113722
0.115996
0.117763
0.118953
0.119518
0.119444
0.118749
0.117479
0.115702
0.113504
0.110976
0.108213
0.105304
0.102326
0.0993485
0.0964246
0.093596
0.0908927
0.0883366
0.085942
0.0837195
0.0816719
0.0797994
0.0781018
0.0765767
0.0752194
0.0740262
0.072993
0.0721157
0.0713906
0.0708145
0.0703847
0.0700994
0.0699568
0.0613438
0.061463
0.0617024
0.0620651
0.0625552
0.0631779
0.06394
0.0648498
0.0659168
0.0671517
0.0685662
0.0701735
0.0719871
0.0740193
0.076282
0.0787883
0.0815402
0.0845376
0.0877739
0.0912303
0.0948812
0.0986776
0.102546
0.106406
0.110159
0.113688
0.116866
0.119562
0.121658
0.123058
0.1237
0.123566
0.122682
0.121111
0.118945
0.116296
0.113284
0.110029
0.106641
0.103214
0.0998264
0.0965367
0.0933874
0.0904071
0.0876149
0.0850214
0.0826329
0.0804475
0.0784619
0.076673
0.0750736
0.0736568
0.0724165
0.0713462
0.0704403
0.0696934
0.0691012
0.0686601
0.0683675
0.0682214
0.059498
0.0596146
0.059849
0.0602048
0.0606866
0.0613006
0.0620548
0.0629592
0.0640252
0.0652663
0.0666971
0.0683346
0.0701971
0.0723025
0.0746688
0.0773166
0.0802548
0.0834903
0.0870246
0.0908432
0.0949219
0.0992191
0.103651
0.108122
0.112516
0.116689
0.120478
0.123711
0.126225
0.127893
0.12863
0.128414
0.127281
0.125321
0.122658
0.119441
0.115829
0.111973
0.108013
0.104062
0.100207
0.0965095
0.0930097
0.0897329
0.0866936
0.0838978
0.0813429
0.0790225
0.0769286
0.0750538
0.0733865
0.0719167
0.0706355
0.069534
0.0686045
0.0678401
0.0672354
0.0667857
0.0664876
0.0663389
0.057532
0.0576443
0.0578706
0.0582147
0.0586818
0.0592791
0.0600157
0.0609029
0.0619545
0.0631865
0.0646171
0.0662671
0.0681602
0.0703209
0.0727745
0.075551
0.0786689
0.0821442
0.0859903
0.0902017
0.0947585
0.0996259
0.104716
0.109915
0.115091
0.120067
0.124631
0.128552
0.131609
0.133621
0.134475
0.134142
0.132678
0.130209
0.126906
0.122969
0.118606
0.114017
0.109375
0.104815
0.100432
0.0962844
0.0924081
0.0888205
0.0855308
0.0825334
0.079817
0.077369
0.0751767
0.0732256
0.0715001
0.0699867
0.0686732
0.0675481
0.0666018
0.0658257
0.0652129
0.0647579
0.0644568
0.0643066
0.0554495
0.0555559
0.0557706
0.0560976
0.0565428
0.0571141
0.0578214
0.0586778
0.0596987
0.0609031
0.0623124
0.0639519
0.0658508
0.0680414
0.0705572
0.0734394
0.0767198
0.0804271
0.0845902
0.0892182
0.0943013
0.0998108
0.105664
0.111731
0.117858
0.123842
0.129403
0.134224
0.137993
0.140457
0.141456
0.140957
0.139046
0.135904
0.131769
0.126908
0.121598
0.116107
0.110654
0.105394
0.100421
0.0957881
0.0915173
0.0876149
0.0840773
0.0808857
0.0780196
0.0754582
0.0731822
0.0711691
0.069399
0.0678546
0.06652
0.0653812
0.0644265
0.0636455
0.0630303
0.0625742
0.0622727
0.0621223
0.0532564
0.053355
0.0535542
0.0538584
0.0542736
0.0548082
0.0554734
0.0562831
0.0572546
0.0584089
0.0597714
0.0613714
0.0632441
0.0654298
0.0679718
0.0709234
0.074335
0.0782522
0.0827233
0.0877805
0.0934311
0.0996574
0.106394
0.113488
0.120774
0.128029
0.134886
0.140898
0.145617
0.148678
0.149855
0.149111
0.146587
0.142547
0.137323
0.131269
0.124756
0.118152
0.111741
0.105686
0.10007
0.0949241
0.090254
0.0860466
0.0822752
0.0789082
0.0759133
0.0732608
0.0709214
0.0688657
0.0670689
0.0655092
0.0641675
0.0630271
0.062074
0.0612966
0.0606854
0.0602332
0.0599345
0.0597856
0.0509605
0.0510493
0.051229
0.0515039
0.0518804
0.0523673
0.0529759
0.0537213
0.0546217
0.0557005
0.0569856
0.058511
0.060317
0.0624529
0.0649721
0.0679415
0.0714346
0.0755185
0.0802669
0.0857461
0.0919952
0.0990191
0.106769
0.11506
0.123716
0.132609
0.141189
0.148813
0.154824
0.158688
0.160079
0.158965
0.155578
0.150321
0.143663
0.136052
0.127982
0.120001
0.112475
0.105541
0.0992461
0.0935833
0.0885287
0.0840389
0.0800626
0.0765517
0.0734597
0.0707467
0.0683713
0.0662979
0.0644967
0.0629413
0.0616092
0.0604813
0.0595417
0.0587774
0.0581779
0.0577349
0.0574427
0.057297
0.0485715
0.0486484
0.0488043
0.0490436
0.0493724
0.0497996
0.0503365
0.0509984
0.0518043
0.0527786
0.0539517
0.0553607
0.0570515
0.0590808
0.061514
0.0644316
0.0679318
0.0721099
0.0770731
0.0829361
0.0897891
0.09768
0.106603
0.116323
0.126478
0.137481
0.148352
0.158178
0.165971
0.170925
0.172573
0.170903
0.166307
0.159406
0.150877
0.141298
0.131049
0.121403
0.112629
0.104765
0.0977899
0.091637
0.0862368
0.0815086
0.0773748
0.0737667
0.0706225
0.0678879
0.0655115
0.0634513
0.0616723
0.060144
0.0588409
0.0577417
0.0568291
0.0560886
0.055509
0.0550815
0.0547996
0.0546592
0.0461013
0.0461642
0.0462923
0.0464895
0.0467616
0.0471169
0.0475664
0.0481249
0.0488113
0.0496501
0.0506725
0.0519181
0.0534363
0.0552907
0.0575573
0.0603311
0.0637332
0.0678948
0.0729677
0.0791268
0.0865433
0.0953432
0.105597
0.117148
0.125366
0.138413
0.151634
0.164071
0.17436
0.181278
0.184059
0.182565
0.177298
0.169122
0.158967
0.14775
0.133471
0.12198
0.11189
0.103098
0.0955019
0.0889325
0.0832611
0.0783685
0.074147
0.0705066
0.0673678
0.0646605
0.0623254
0.0603151
0.0585892
0.0571141
0.0558617
0.0548093
0.0539382
0.0532332
0.0526826
0.0522771
0.0520099
0.0518767
0.0435636
0.0436108
0.0437072
0.0438562
0.0440629
0.0443348
0.0446815
0.0451168
0.0456581
0.0463289
0.0471597
0.0481902
0.0494715
0.051071
0.0530735
0.0555864
0.058751
0.0627384
0.0677527
0.0740414
0.0818902
0.0915629
0.103328
0.113108
0.129855
0.145835
0.162775
0.17916
0.192681
0.201357
0.203994
0.200562
0.192099
0.180143
0.16612
0.150971
0.137833
0.121225
0.10982
0.100253
0.0921759
0.0853096
0.079484
0.0745347
0.0703215
0.0667326
0.0636681
0.0610466
0.0588029
0.056884
0.0552459
0.0538526
0.0526747
0.0516884
0.0508744
0.0502173
0.049705
0.0493283
0.0490802
0.0489566
0.0409743
0.041004
0.0410653
0.0411608
0.0412944
0.0414722
0.041702
0.0419952
0.0423669
0.0428377
0.0434352
0.0441969
0.045172
0.0464278
0.0480531
0.0501639
0.0529172
0.0565173
0.0612267
0.0673657
0.0753699
0.0857188
0.098901
0.112391
0.131782
0.147923
0.169421
0.191145
0.209608
0.221665
0.225313
0.220418
0.208723
0.192792
0.174875
0.153443
0.136254
0.118696
0.105958
0.0959433
0.0875884
0.0806086
0.0747974
0.0699353
0.0658532
0.062415
0.059506
0.0570382
0.0549416
0.0531597
0.0516467
0.0503657
0.0492871
0.048387
0.0476463
0.0470497
0.0465855
0.0462444
0.04602
0.0459081
0.0383508
0.0383618
0.0383852
0.0384229
0.0384772
0.038552
0.0386529
0.0387877
0.0389678
0.039209
0.0395338
0.0399738
0.0405724
0.0413911
0.0425155
0.0440622
0.046195
0.04914
0.0532068
0.0587818
0.0664502
0.0770119
0.0908358
0.107445
0.131327
0.155208
0.184747
0.214746
0.240343
0.256165
0.258637
0.247972
0.227934
0.203499
0.178686
0.153333
0.134045
0.113457
0.0998894
0.0898672
0.0815117
0.0746855
0.0691132
0.0645204
0.0607144
0.0575408
0.0548791
0.0526394
0.0507493
0.0491522
0.0478029
0.0466654
0.0457113
0.0449176
0.0442662
0.0437426
0.0433358
0.0430372
0.0428409
0.042743
0.0357121
0.0357035
0.0356874
0.0356643
0.0356349
0.0356007
0.0355636
0.0355277
0.0354986
0.0354859
0.0355038
0.0355746
0.0357307
0.0360209
0.0365181
0.0373274
0.0386031
0.0405714
0.0435678
0.0480188
0.0545869
0.0644494
0.0778196
0.0974252
0.125606
0.156388
0.197603
0.240971
0.279287
0.302785
0.304165
0.284109
0.250816
0.214142
0.180732
0.149697
0.127849
0.105215
0.0913377
0.0817407
0.0737662
0.0674467
0.0623894
0.0582767
0.0549051
0.0521198
0.0498035
0.0478683
0.0462452
0.0448808
0.0437334
0.04277
0.0419646
0.0412967
0.0407498
0.040311
0.0399707
0.0397211
0.039557
0.0394752
0.0330778
0.0330495
0.0329932
0.0329084
0.0327935
0.0326472
0.0324677
0.0322538
0.0320046
0.0317214
0.0314076
0.0310723
0.0307313
0.0304131
0.0301666
0.0300691
0.0302429
0.0308818
0.0323077
0.0349402
0.0394059
0.0471949
0.0582732
0.0803056
0.111594
0.150187
0.206598
0.270878
0.331979
0.370929
0.37051
0.332201
0.275312
0.219792
0.17586
0.139774
0.116159
0.0932057
0.0798739
0.07134
0.0642785
0.0588885
0.054648
0.0512325
0.0484603
0.0461902
0.0443161
0.0427599
0.0414613
0.0403749
0.039465
0.0387037
0.0380695
0.0375448
0.0371163
0.0367732
0.0365073
0.0363125
0.0361844
0.0361204
0.0304683
0.0304206
0.0303249
0.0301793
0.0299802
0.0297229
0.0294015
0.0290091
0.0285374
0.0279776
0.0273206
0.0265585
0.0256856
0.0247022
0.0236207
0.0224738
0.0213255
0.0202921
0.0196245
0.0196717
0.0208869
0.024899
0.0310218
0.0537407
0.0852988
0.13049
0.204813
0.29973
0.403175
0.476677
0.473078
0.395162
0.294215
0.211208
0.156747
0.118858
0.0967471
0.0764943
0.0650948
0.0585862
0.0531185
0.0491077
0.0459783
0.043473
0.0414595
0.0398222
0.0384776
0.0373662
0.036443
0.0356739
0.0350321
0.0344972
0.0340529
0.0336866
0.0333881
0.0331496
0.0329651
0.0328299
0.032741
0.0326963
0.0279035
0.0278375
0.0277046
0.0275015
0.0272223
0.0268595
0.0264027
0.0258389
0.0251523
0.0243233
0.0233283
0.0221406
0.0207289
0.0190588
0.0170961
0.0148117
0.0121872
0.00921586
0.00600066
0.00273472
-0.000453178
-0.00204324
-0.00416414
0.0159219
0.0418813
0.0883685
0.177268
0.309712
0.491491
0.654057
0.644461
0.468534
0.284852
0.169156
0.112363
0.0830624
0.0680538
0.0548523
0.0471132
0.0437177
0.0405335
0.0383081
0.0365546
0.0351477
0.0340264
0.0331166
0.0323704
0.031756
0.0312477
0.0308262
0.0304763
0.0301861
0.0299464
0.0297498
0.0295904
0.0294633
0.0293653
0.0292934
0.029246
0.0292219
0.0254023
0.0253198
0.0251532
0.0248981
0.0245466
0.0240882
0.0235084
0.0227888
0.0219058
0.0208294
0.0195216
0.0179356
0.0160134
0.013683
0.0108561
0.00743027
0.00328734
-0.00173713
-0.00776083
-0.0148525
-0.0233789
-0.0321446
-0.0457341
-0.0330483
-0.0215454
0.0142816
0.098737
0.249308
0.544284
0.976969
0.954665
0.498991
0.183909
0.0610198
0.0313779
0.0306709
0.0304819
0.0294933
0.0268676
0.0273983
0.0270005
0.0268408
0.0266494
0.0264688
0.0263247
0.0262009
0.0260962
0.0260112
0.0259425
0.0258876
0.0258443
0.0258106
0.0257846
0.0257649
0.0257501
0.0257389
0.0257307
0.0257245
0.0257202
0.0257173
0.022982
0.0228854
0.0226901
0.0223905
0.0219773
0.0214375
0.0207533
0.0199014
0.0188514
0.0175643
0.0159891
0.0140608
0.0116958
0.008786
0.00519006
0.00072767
-0.0048242
-0.0117998
-0.0205798
-0.0315721
-0.0458036
-0.0624538
-0.0893619
-0.0889753
-0.100845
-0.0934982
-0.0510585
0.0169461
0.193307
1.38043
1.46813
0.15413
-0.145965
-0.143458
-0.0875179
-0.0322965
-0.0114776
0.00314188
0.00608198
0.0107255
0.0132418
0.0152
0.016617
0.017694
0.0185455
0.0192209
0.0197693
0.0202227
0.0206007
0.0209183
0.0211864
0.021413
0.021604
0.0217638
0.0218957
0.0220021
0.0220849
0.0221454
0.0221848
0.0222035
0.0206575
0.0205496
0.0203315
0.0199969
0.0195353
0.018932
0.0181669
0.0172131
0.0160354
0.0145879
0.0128099
0.0106223
0.007921
0.00456877
0.00037977
-0.00489517
-0.011572
-0.0201369
-0.0312219
-0.0455691
-0.0649485
-0.0887008
-0.128129
-0.142961
-0.181364
-0.214384
-0.240366
-0.334449
-0.630218
-1.6224
-0.751447
-0.400412
-0.212359
-0.089681
-0.0498279
-0.0205862
-0.013069
-0.00498032
9.43274e-05
0.00394241
0.00684219
0.00909491
0.0108872
0.0123274
0.0135065
0.0144829
0.0152967
0.0159791
0.0165532
0.0170363
0.0174415
0.0177787
0.0180559
0.0182788
0.0184519
0.0185786
0.0186615
0.0187018
0.0184405
0.0183247
0.0180906
0.0177316
0.0172367
0.0165904
0.0157714
0.0147514
0.0134926
0.0119457
0.0100447
0.00770267
0.00480352
0.00119267
-0.00334212
-0.0090977
-0.0164518
-0.0259941
-0.0385359
-0.0550435
-0.077971
-0.106433
-0.154484
-0.18377
-0.24335
-0.313668
-0.394311
-0.611985
-1.3572
-1.57119
-2.64232
-1.04302
-0.535929
-0.283675
-0.122444
-0.075805
-0.0385436
-0.0286943
-0.0185665
-0.0116952
-0.00642352
-0.00231834
0.000927954
0.00354197
0.00566868
0.00742417
0.00888448
0.0101057
0.0111322
0.011997
0.0127248
0.0133351
0.0138429
0.0142602
0.0145956
0.0148563
0.0150472
0.0151721
0.0152335
0.0163397
0.0162194
0.0159764
0.0156041
0.0150919
0.0144244
0.0135806
0.0125326
0.0112432
0.00966335
0.00772765
0.00534888
0.00240985
-0.0012459
-0.00583407
-0.0116659
-0.0191337
-0.0288604
-0.0417211
-0.0587304
-0.0828034
-0.112582
-0.163268
-0.203059
-0.27322
-0.366355
-0.466705
-0.706335
-1.22921
-1.46195
-2.09939
-1.20009
-0.72466
-0.46041
-0.270355
-0.124364
-0.0862057
-0.0498779
-0.0400651
-0.0294975
-0.0217151
-0.015579
-0.0106186
-0.00661476
-0.00333627
-0.000631422
0.00162253
0.00350952
0.00509599
0.00643502
0.00756603
0.0085199
0.00932094
0.00998836
0.0105371
0.0109786
0.0113219
0.0115735
0.0117383
0.0118196
0.0143599
0.0142386
0.0139937
0.0136192
0.0131053
0.0124381
0.0115982
0.0105601
0.00929012
0.00774351
0.00586116
0.00356435
0.000746363
-0.00273471
-0.00707144
-0.012552
-0.0195278
-0.0285769
-0.0405068
-0.0561883
-0.0786549
-0.106174
-0.152861
-0.197794
-0.266533
-0.365253
-0.451666
-0.648578
-1.03635
-1.62815
-1.72337
-0.636904
-0.305413
-0.2844
-0.205442
-0.108826
-0.0859783
-0.0564995
-0.0479343
-0.038025
-0.0299888
-0.0234586
-0.0179645
-0.0134342
-0.00965335
-0.0064892
-0.00382624
-0.00157964
0.000321289
0.00193364
0.00330057
0.00445681
0.00543022
0.00624286
0.00691197
0.00745094
0.00787052
0.00817829
0.00838007
0.00847986
0.0125025
0.0123833
0.012143
0.0117765
0.0112754
0.0106279
0.00981781
0.00882409
0.00761868
0.00616522
0.00441609
0.00230844
-0.000242579
-0.003349
-0.00715637
-0.0118943
-0.017818
-0.025388
-0.0352258
-0.0479126
-0.0661701
-0.0882385
-0.124841
-0.169095
-0.226066
-0.313315
-0.374467
-0.504166
-0.7438
-1.09974
-1.19799
-0.458765
-0.0771849
-0.159959
-0.145396
-0.0963387
-0.0838502
-0.0616026
-0.0539022
-0.0448974
-0.0368399
-0.0301842
-0.0243783
-0.0195053
-0.0153644
-0.0118549
-0.0088731
-0.0063374
-0.00417695
-0.00233465
-0.000765974
0.000565691
0.00169022
0.00263127
0.00340764
0.00403403
0.00452237
0.00488097
0.00511634
0.00523289
0.0107657
0.0106514
0.010421
0.010071
0.0095947
0.00898315
0.00822446
0.00730308
0.0061991
0.00488712
0.00333475
0.00150096
-0.000668834
-0.00324481
-0.00630778
-0.0100006
-0.0144404
-0.0199229
-0.026783
-0.0352423
-0.0472124
-0.0613538
-0.083161
-0.121065
-0.15976
-0.226665
-0.268078
-0.354229
-0.485018
-0.622453
-0.552958
-0.151475
-0.0318973
-0.11815
-0.120146
-0.0982613
-0.0860052
-0.0676266
-0.0593644
-0.0508473
-0.0426466
-0.0359434
-0.0299374
-0.0248469
-0.0204594
-0.0167062
-0.0134897
-0.0107333
-0.00836881
-0.00634145
-0.00460711
-0.00312877
-0.00187617
-0.000824942
4.42493e-05
0.000746951
0.0012956
0.0016991
0.00196418
0.00209562
0.00914484
0.00903731
0.00882118
0.00849405
0.00805152
0.00748803
0.00679627
0.0059673
0.00499015
0.00385203
0.0025378
0.00103116
-0.000687306
-0.00263886
-0.00483156
-0.00731333
-0.0100419
-0.0131244
-0.0165161
-0.0201001
-0.0244927
-0.0291828
-0.0333032
-0.059953
-0.0775322
-0.122298
-0.160609
-0.23156
-0.312324
-0.355797
-0.292482
-0.0977294
-0.115832
-0.132555
-0.126041
-0.112983
-0.0935264
-0.0748041
-0.0647147
-0.0561775
-0.0476216
-0.0408689
-0.0347106
-0.0294888
-0.0249464
-0.0210382
-0.0176631
-0.0147502
-0.0122354
-0.0100672
-0.00820332
-0.00660758
-0.00525056
-0.00410825
-0.00316124
-0.00239397
-0.00179386
-0.00135186
-0.00106117
-0.00091686
0.00763307
0.00753376
0.00733452
0.00703441
0.0066313
0.00612311
0.00550721
0.00478124
0.00394347
0.00299351
0.00193355
0.000771793
-0.000475758
-0.00178369
-0.00309169
-0.00435907
-0.00537587
-0.00607104
-0.00598135
-0.00474939
-0.0013719
0.00359681
0.0176587
0.00654648
0.0121628
-0.0107129
-0.0632077
-0.13294
-0.21234
-0.263789
-0.26466
-0.196347
-0.197533
-0.16312
-0.143359
-0.130094
-0.102682
-0.0819915
-0.0694736
-0.0607241
-0.0517364
-0.0449743
-0.0387201
-0.0334532
-0.0288402
-0.0248573
-0.021392
-0.0183822
-0.0157676
-0.0135009
-0.0115422
-0.0098575
-0.00841945
-0.00720496
-0.0061952
-0.0053752
-0.00473266
-0.00425871
-0.0039466
-0.00379148
0.0062223
0.00613179
0.00595072
0.00567938
0.0053179
0.00486725
0.00432928
0.00370765
0.00300873
0.00224342
0.00142933
0.000595201
-0.000214319
-0.000936211
-0.00144953
-0.00164402
-0.00116688
0.000174714
0.00324329
0.00844519
0.0184867
0.0316388
0.0613447
0.0688891
0.100932
0.107839
0.0393257
-0.0862592
-0.202836
-0.291923
-0.336089
-0.30353
-0.231069
-0.18026
-0.154943
-0.141036
-0.109316
-0.087133
-0.0727181
-0.064056
-0.0547985
-0.0481796
-0.0419431
-0.0367486
-0.0321582
-0.0281777
-0.024685
-0.0216328
-0.0189651
-0.0166388
-0.0146178
-0.0128711
-0.011374
-0.0101053
-0.00904737
-0.00818616
-0.00751006
-0.00701051
-0.00668115
-0.00651726
0.00490361
0.00482191
0.00465886
0.00441589
0.00409491
0.00369965
0.0032355
0.00271098
0.00213899
0.00153924
0.000940622
0.000385532
-6.19758e-05
-0.000312602
-0.000202872
0.000413618
0.00198453
0.00472618
0.00981336
0.0174234
0.0317183
0.0495801
0.0881979
0.113614
0.172959
0.227249
0.19578
-0.0631991
-0.284055
-0.368184
-0.36738
-0.290994
-0.222501
-0.177114
-0.154274
-0.142266
-0.11097
-0.0888706
-0.0736508
-0.0657449
-0.0566353
-0.0504291
-0.0443699
-0.0393886
-0.0349212
-0.0310206
-0.0275599
-0.0245149
-0.0218354
-0.0194842
-0.0174298
-0.0156454
-0.0141095
-0.0128032
-0.0117106
-0.010819
-0.0101176
-0.00959863
-0.00925598
-0.00908533
0.00366824
0.00359475
0.00344843
0.00323151
0.00294729
0.00260143
0.00220193
0.0017607
0.00129497
0.000829614
0.000399133
5.34593e-05
-0.000133172
-6.19434e-05
0.000448632
0.00154118
0.00370072
0.00704936
0.0129343
0.0209762
0.0362504
0.0539097
0.0915282
0.126687
0.198871
0.290538
0.316952
0.0454359
-0.352825
-0.389227
-0.3302
-0.274556
-0.200256
-0.161938
-0.143765
-0.134624
-0.106894
-0.0868493
-0.0721343
-0.0656801
-0.0572208
-0.0517466
-0.0460509
-0.0414217
-0.0371676
-0.0334178
-0.0300442
-0.0270502
-0.0243932
-0.022046
-0.0199829
-0.0181818
-0.0166247
-0.0152956
-0.0141806
-0.0132684
-0.0125495
-0.0120166
-0.0116644
-0.0114888
0.00250799
0.0024417
0.00230985
0.00211523
0.00186207
0.00155708
0.00120984
0.000833986
0.000448178
7.85094e-05
-0.000238869
-0.000452
-0.000487449
-0.000253861
0.000424003
0.00164845
0.00389183
0.00708174
0.0125999
0.0192444
0.0324044
0.045372
0.0731804
0.105051
0.157304
0.2188
0.245277
0.361778
-0.104128
-0.403327
-0.394345
-0.263827
-0.178754
-0.144817
-0.128579
-0.120101
-0.0978015
-0.0814505
-0.0685809
-0.0641342
-0.0567456
-0.0522666
-0.047109
-0.0429463
-0.0389686
-0.0354184
-0.0321742
-0.0292668
-0.0266594
-0.0243382
-0.0222858
-0.020485
-0.0189215
-0.0175822
-0.0164553
-0.0155312
-0.0148015
-0.0142599
-0.0139014
-0.0137225
0.00141568
0.00135526
0.00123512
0.00105828
0.000829285
0.000555364
0.000246391
-8.44071e-05
-0.000419033
-0.000732409
-0.000990186
-0.00114482
-0.00113242
-0.000881851
-0.000242662
0.000823171
0.00274725
0.0052106
0.00955749
0.0136754
0.022899
0.0290841
0.0437201
0.0637414
0.0839779
0.086913
0.0843418
0.400418
0.277083
-0.364865
-0.418244
-0.244074
-0.158239
-0.124938
-0.110595
-0.100176
-0.0848263
-0.0736086
-0.0637633
-0.0616399
-0.0556061
-0.0522469
-0.0477298
-0.0441002
-0.0404266
-0.037098
-0.0340002
-0.0311985
-0.028658
-0.0263782
-0.02435
-0.0225621
-0.0210039
-0.0196646
-0.0185347
-0.0176061
-0.0168715
-0.0163256
-0.0159639
-0.0157831
0.000385546
0.000329551
0.000218096
5.4108e-05
-0.000157844
-0.00041094
-0.000696334
-0.00100223
-0.00131215
-0.00160409
-0.00184917
-0.00200876
-0.00203391
-0.00187951
-0.00142895
-0.000716898
0.000643726
0.0020938
0.0049548
0.00631189
0.0113627
0.0113308
0.0148487
0.0227363
0.0206798
-0.0132195
-0.0307047
0.149603
0.508212
-0.0244753
-0.349624
-0.226431
-0.150074
-0.110477
-0.0893859
-0.075931
-0.069485
-0.0648374
-0.0587404
-0.0589125
-0.0543205
-0.0520395
-0.0481413
-0.0450202
-0.0416316
-0.0385256
-0.0355768
-0.0328823
-0.0304143
-0.0281841
-0.0261885
-0.0244219
-0.0228772
-0.0215457
-0.02042
-0.0194931
-0.0187588
-0.0182123
-0.0178499
-0.0176687
-0.000586735
-0.000639743
-0.000745489
-0.000901293
-0.00110315
-0.00134538
-0.00162071
-0.00191875
-0.00222592
-0.00252495
-0.00279455
-0.00300716
-0.00313021
-0.00314395
-0.00296592
-0.00269804
-0.00198269
-0.00157092
-0.000101708
-0.00106086
0.000647646
-0.00355447
-0.00686562
-0.00692996
-0.0181213
-0.060774
-0.0741135
-0.0265154
0.389302
0.557848
-0.00147265
-0.166141
-0.136243
-0.0925621
-0.0638214
-0.0494143
-0.0541491
-0.057225
-0.0547897
-0.0567932
-0.0534451
-0.0520107
-0.0485918
-0.0458671
-0.0426911
-0.0397692
-0.036951
-0.0343539
-0.031952
-0.0297724
-0.0278136
-0.0260732
-0.0245474
-0.0232296
-0.0221136
-0.0211934
-0.0204636
-0.0199199
-0.019559
-0.0193784
-0.00150401
-0.00155534
-0.00165802
-0.00180994
-0.00200799
-0.00224787
-0.00252364
-0.00282719
-0.00314855
-0.0034758
-0.00379596
-0.00409216
-0.00434719
-0.00456148
-0.00468032
-0.00485936
-0.0047506
-0.00523483
-0.00483895
-0.00736245
-0.00780091
-0.013954
-0.0201771
-0.0237577
-0.0355419
-0.0701612
-0.0720348
-0.0601009
0.198257
0.716806
0.600014
0.0560925
-0.105613
-0.0545517
-0.0328477
-0.0252836
-0.042451
-0.0532491
-0.0532295
-0.0561192
-0.053479