/*--------------------------------*- C++ -*----------------------------------*\
  =========                 |
  \\      /  F ield         | OpenFOAM: The Open Source CFD Toolbox
   \\    /   O peration     | Website:  https://openfoam.org
    \\  /    A nd           | Version:  12
     \\/     M anipulation  |
\*---------------------------------------------------------------------------*/
FoamFile
{
    format      ascii;
    class       surfaceScalarField;
    location    "320";
    object      phi;
}
// * * * * * * * * * * * * * * * * * * * * * * * * * * * * * * * * * * * * * //

dimensions      [0 3 -1 0 0 0 0];

internalField   nonuniform List<scalar> 
32440
(
-1.73462e-07
0.0399882
1.65719e-06
0.0399882
-5.06868e-07
0.0399902
1.33708e-06
0.0399882
-8.07982e-07
0.0399901
1.06039e-06
0.0399981
9.45288e-07
0.0400101
8.49254e-07
0.0400101
2.77571e-06
0.0400101
4.7276e-06
0.04001
6.7085e-06
0.04001
2.72099e-06
0.040004
2.76575e-06
0.04
2.84637e-06
0.0399999
2.96481e-06
0.0399999
3.12278e-06
0.0399998
3.32149e-06
0.0399998
3.5616e-06
0.0399998
3.84317e-06
0.0399997
4.16527e-06
0.0399997
4.52593e-06
0.0399996
4.92205e-06
0.0399996
5.35011e-06
0.0399996
5.80542e-06
0.0399995
6.28228e-06
0.0399995
6.77416e-06
0.0399995
7.27372e-06
0.0399995
7.77349e-06
0.0399995
6.66528e-06
0.0400011
1.47999e-06
0.0400052
3.91489e-07
0.0400011
6.10232e-07
0.0399998
9.90194e-07
0.0399996
1.32547e-06
0.0399997
2.6111e-06
0.0399987
2.84311e-06
0.0399998
3.01899e-06
0.0399998
3.1372e-06
0.0399999
3.19747e-06
0.0399999
3.2004e-06
0.04
3.14755e-06
0.0400001
3.04126e-06
0.0400001
2.88458e-06
0.0400002
2.68103e-06
0.0400002
2.43457e-06
0.0400002
2.14918e-06
0.0400003
1.82893e-06
0.0400003
1.47819e-06
0.0400004
1.09996e-06
0.0400004
6.98192e-07
0.0400004
2.76368e-07
0.0400004
-2.1624e-06
0.0400024
-8.61453e-06
0.0400065
-3.07848e-06
0.0400065
4.47642e-07
0.0400085
-3.3963e-08
0.0400105
1.47905e-06
0.0399985
9.88068e-07
0.0399885
4.9449e-07
0.0399905
0.0399885
-1.05883e-06
0.0399892
-2.10798e-06
0.0399892
-3.14324e-06
0.0399912
-4.15743e-06
0.0399892
-3.14282e-06
0.0399891
-2.09205e-06
0.0399971
-9.96674e-07
0.040009
-1.84772e-06
0.0400109
-6.34864e-07
0.0400089
2.65122e-06
0.0400068
6.02422e-06
0.0400066
-2.50498e-06
0.0400125
-6.93314e-06
0.0400044
-7.24487e-06
0.0400002
-7.43046e-06
0.0400001
-7.47922e-06
0.0399999
-7.38214e-06
0.0399997
-7.13148e-06
0.0399995
-6.72077e-06
0.0399993
-6.14641e-06
0.0399991
-5.40788e-06
0.0399989
-4.50983e-06
0.0399987
-3.45659e-06
0.0399985
-2.25776e-06
0.0399983
-9.26791e-07
0.0399982
7.19231e-07
0.0399979
2.25987e-06
0.039998
3.47146e-06
0.0399983
3.72773e-06
0.0400009
-3.05886e-07
0.0400092
-1.38369e-07
0.0400009
1.48312e-06
0.0399982
3.03821e-06
0.0399981
4.50138e-06
0.0399982
4.64999e-06
0.0399986
5.86477e-06
0.0399986
6.92897e-06
0.0399988
7.83043e-06
0.039999
8.56126e-06
0.0399992
9.11674e-06
0.0399994
9.49567e-06
0.0399997
9.70002e-06
0.0399999
9.73465e-06
0.0400001
9.60738e-06
0.0400003
1.13254e-05
0.0399985
1.08996e-05
0.0400007
1.03412e-05
0.0400009
9.66144e-06
0.040001
8.87293e-06
0.0400012
7.9874e-06
0.0400013
5.01471e-06
0.0400034
-3.25586e-08
0.0400075
-3.14363e-06
0.0400096
-2.31149e-06
0.0400056
-1.52592e-06
0.0400077
-7.77735e-07
0.0400097
3.94139e-06
0.0399938
6.38728e-07
0.0399918
1.32174e-06
0.0399898
0.0399898
-2.21824e-06
0.0399915
-4.42319e-06
0.0399914
-4.60814e-06
0.0399914
-6.76287e-06
0.0399913
-1.08759e-05
0.0399932
-6.93395e-06
0.0399931
-8.92771e-06
0.040011
-8.83801e-06
0.0400109
-8.65231e-06
0.0400087
-8.34922e-06
0.0400065
-7.91357e-06
0.0400062
-1.73121e-05
0.0400219
-2.05469e-05
0.0400076
-2.159e-05
0.0400013
-2.24148e-05
0.0400009
-2.30046e-05
0.0400005
-2.33378e-05
0.04
-2.33961e-05
0.0399996
-1.91627e-05
0.0399951
-2.26243e-05
0.0400026
-2.17773e-05
0.0399981
-2.062e-05
0.0399975
-1.91555e-05
0.0399971
-1.73941e-05
0.0399966
-1.53541e-05
0.0399962
-1.30606e-05
0.0399956
-1.05457e-05
0.0399954
-7.84667e-06
0.0399956
-6.60867e-06
0.0399996
-9.36447e-06
0.040012
-7.90658e-06
0.0399995
-5.145e-06
0.0399954
-2.24349e-06
0.0399952
5.49959e-07
0.0399954
4.19084e-06
0.0399949
6.63967e-06
0.0399961
8.86376e-06
0.0399965
1.08365e-05
0.039997
1.25366e-05
0.0399975
1.39509e-05
0.039998
1.50722e-05
0.0399986
1.58993e-05
0.0399991
1.64368e-05
0.0399996
1.66904e-05
0.0400001
1.46744e-05
0.0400005
1.4403e-05
0.040001
1.38941e-05
0.0400014
1.51639e-05
0.0399998
1.42324e-05
0.0400021
1.11195e-05
0.0400044
7.84479e-06
0.0400067
-3.56866e-06
0.0400189
8.88574e-07
0.0400051
1.23788e-06
0.0400053
1.49737e-06
0.0400074
3.68335e-06
0.0400075
5.81199e-06
0.0399916
3.89742e-06
0.0399937
1.95436e-06
0.0399918
0.0399918
-3.42905e-06
0.0399949
-6.84211e-06
0.0399948
-1.02302e-05
0.0399948
-1.35801e-05
0.0399947
-1.48768e-05
0.0399945
-1.81048e-05
0.0399964
-1.52458e-05
0.0400082
-1.6283e-05
0.0400119
-1.71887e-05
0.0400096
-1.99442e-05
0.0400092
-2.25133e-05
0.0400088
-2.88625e-05
0.0400283
-3.49844e-05
0.0400137
-3.88336e-05
0.0400051
-4.03826e-05
0.0400024
-3.95894e-05
0.0399997
-3.84288e-05
0.0399989
-2.88735e-05
0.03999
-2.28932e-05
0.0399891
-3.44402e-05
0.0400141
-3.95389e-05
0.0400032
-3.81657e-05
0.0399962
-3.63212e-05
0.0399952
-3.40137e-05
0.0399943
-3.12699e-05
0.0399934
-2.81198e-05
0.0399924
-2.46072e-05
0.0399919
-2.09866e-05
0.039992
-1.8316e-05
0.0399969
-1.97535e-05
0.0400134
-1.69183e-05
0.0399966
-1.27426e-05
0.0399912
-8.21432e-06
0.0399906
-4.00764e-06
0.0399912
-1.18987e-06
0.0399921
2.57788e-06
0.0399923
6.04335e-06
0.0399931
9.16375e-06
0.0399939
1.39056e-05
0.0399928
1.62467e-05
0.0399957
1.8173e-05
0.0399966
1.96808e-05
0.0399976
2.07697e-05
0.0399985
2.14527e-05
0.0399994
2.17455e-05
0.0400003
2.16651e-05
0.0400011
2.12351e-05
0.0400018
1.84841e-05
0.0400025
1.94356e-05
0.0400011
1.81184e-05
0.0400057
6.56272e-06
0.0400182
4.79702e-06
0.0400207
2.83935e-06
0.0400071
2.72056e-06
0.0400054
2.46712e-06
0.0400077
8.1043e-06
0.0400019
5.65306e-06
0.0399941
5.13703e-06
0.0399942
2.57778e-06
0.0399943
0.0399943
-4.6543e-06
0.0399995
-9.29078e-06
0.0399995
-1.38986e-05
0.0399994
-1.84611e-05
0.0399992
-2.29639e-05
0.039999
-2.53843e-05
0.0399988
-2.17019e-05
0.0400045
-2.5893e-05
0.0400161
-2.99296e-05
0.0400136
-3.17781e-05
0.0400111
-3.34027e-05
0.0400104
-3.67551e-05
0.0400316
-4.78033e-05
0.0400248
-5.25176e-05
0.0400098
-5.48409e-05
0.0400048
-5.67292e-05
0.0400016
-5.21337e-05
0.0399943
-3.9031e-05
0.0399769
-4.53365e-05
0.0399954
-5.50133e-05
0.0400238
-5.80869e-05
0.0400062
-5.65179e-05
0.0399946
-5.43053e-05
0.039993
-5.14575e-05
0.0399914
-4.79944e-05
0.0399899
-4.39591e-05
0.0399884
-3.9407e-05
0.0399874
-3.4405e-05
0.039987
-3.0641e-05
0.0399932
-3.06827e-05
0.0400135
-2.63903e-05
0.0399923
-2.05128e-05
0.0399853
-1.48718e-05
0.039985
-8.96692e-06
0.0399853
-2.69091e-06
0.0399858
2.47113e-06
0.0399872
7.24654e-06
0.0399883
1.15751e-05
0.0399896
1.34122e-05
0.0399909
1.67228e-05
0.0399924
1.94875e-05
0.0399939
2.36985e-05
0.0399934
2.53591e-05
0.0399968
2.64825e-05
0.0399983
2.70838e-05
0.0399996
2.71928e-05
0.040001
2.68401e-05
0.0400022
2.60545e-05
0.0400033
2.2877e-05
0.0400043
1.33418e-05
0.0400153
-5.05086e-07
0.0400321
9.34933e-06
0.0400108
8.95425e-06
0.0400075
6.34587e-06
0.040008
7.55712e-06
0.0400065
1.26204e-05
0.0399968
9.56648e-06
0.0399971
6.4248e-06
0.0399974
3.22538e-06
0.0399975
0.0399976
-5.89514e-06
0.0400054
-9.77049e-06
0.0400033
-1.56159e-05
0.0400052
-2.14133e-05
0.040005
-2.71438e-05
0.0400048
-3.27848e-05
0.0400044
-3.43107e-05
0.040006
-3.36937e-05
0.0400155
-3.89012e-05
0.0400188
-4.38918e-05
0.0400161
-4.66291e-05
0.0400131
-3.30617e-05
0.040018
-5.50774e-05
0.0400468
-6.6715e-05
0.0400215
-7.18794e-05
0.0400099
-7.25097e-05
0.0400022
-6.65559e-05
0.0399883
-6.39497e-05
0.0399743
-6.85977e-05
0.04
-7.64689e-05
0.0400317
-7.75627e-05
0.0400073
-7.58307e-05
0.0399929
-7.32622e-05
0.0399904
-6.98632e-05
0.039988
-6.56562e-05
0.0399857
-6.06966e-05
0.0399834
-5.48478e-05
0.0399815
-4.89996e-05
0.0399811
-4.36475e-05
0.0399878
-4.21996e-05
0.040012
-3.63424e-05
0.0399865
-2.90558e-05
0.0399781
-2.13922e-05
0.0399773
-1.42813e-05
0.0399782
-8.2467e-06
0.0399798
-1.5984e-06
0.0399805
6.56824e-06
0.0399801
1.2176e-05
0.039984
1.71637e-05
0.0399859
2.14895e-05
0.039988
2.51287e-05
0.0399902
2.60673e-05
0.0399924
2.83133e-05
0.0399946
3.18764e-05
0.0399947
3.27892e-05
0.0399987
3.30785e-05
0.0400007
3.27847e-05
0.0400025
3.19497e-05
0.0400041
2.86179e-05
0.0400077
1.68413e-05
0.040027
1.66668e-05
0.0400322
1.61215e-05
0.0400114
1.32641e-05
0.0400103
1.21386e-05
0.0400091
1.87894e-05
0.0399998
1.52506e-05
0.0400004
1.15645e-05
0.0400008
7.76895e-06
0.0400012
3.90111e-06
0.0400014
0.0400015
-7.15714e-06
0.0400126
-1.42947e-05
0.0400105
-2.14015e-05
0.0400123
-2.84595e-05
0.0400121
-3.54486e-05
0.0400118
-4.23443e-05
0.0400113
-4.71182e-05
0.0400108
-4.57332e-05
0.0400141
-5.01618e-05
0.0400233
-5.43513e-05
0.0400202
-6.0254e-05
0.040019
-6.18172e-05
0.0400196
-6.49198e-05
0.0400499
-8.35547e-05
0.0400401
-8.76485e-05
0.040014
-8.51107e-05
0.0399997
-6.79018e-05
0.0399711
-8.58526e-05
0.0399923
-9.09188e-05
0.0400051
-9.70404e-05
0.0400378
-9.82031e-05
0.0400085
-9.63407e-05
0.039991
-9.34319e-05
0.0399875
-8.94726e-05
0.0399841
-8.45048e-05
0.0399808
-7.83682e-05
0.0399773
-7.17487e-05
0.0399749
-6.41488e-05
0.0399735
-5.75032e-05
0.0399812
-5.44404e-05
0.0400089
-4.68783e-05
0.0399789
-3.76453e-05
0.0399688
-2.86192e-05
0.0399683
-1.93695e-05
0.0399689
-9.85136e-06
0.0399703
-1.60343e-06
0.0399723
4.05503e-06
0.0399745
1.10248e-05
0.039977
1.72321e-05
0.0399797
2.46233e-05
0.0399807
2.91702e-05
0.0399857
3.28605e-05
0.0399887
3.57005e-05
0.0399917
3.57122e-05
0.0399947
3.89212e-05
0.0399955
3.93779e-05
0.0400002
3.91242e-05
0.0400027
3.82141e-05
0.040005
2.47077e-05
0.0400212
6.67577e-06
0.0400451
2.21276e-05
0.0400168
2.11466e-05
0.0400123
1.97954e-05
0.0400117
2.41223e-05
0.0400048
2.01745e-05
0.0400038
1.60024e-05
0.0400046
1.16535e-05
0.0400052
7.17336e-06
0.0400056
4.60725e-06
0.0400039
0.0400061
-6.4405e-06
0.040019
-1.68655e-05
0.0400209
-2.52601e-05
0.0400207
-3.16065e-05
0.0400184
-3.98881e-05
0.04002
-4.80779e-05
0.0400195
-5.61429e-05
0.0400188
-6.00535e-05
0.040018
-6.17606e-05
0.040025
-6.92188e-05
0.0400277
-7.63621e-05
0.0400262
-7.91484e-05
0.0400224
-6.14793e-05
0.0400322
-8.9141e-05
0.0400678
-0.000108261
0.0400331
-0.000108652
0.0400001
-0.000104255
0.0399667
-0.000108882
0.0399969
-0.000112476
0.0400087
-0.000118931
0.0400442
-0.000120212
0.0400098
-0.000118268
0.0399891
-0.00011503
0.0399843
-0.000110518
0.0399796
-0.00010474
0.039975
-9.7756e-05
0.0399703
-8.96716e-05
0.0399668
-8.06136e-05
0.0399645
-7.25286e-05
0.0399731
-6.74816e-05
0.0400039
-5.80541e-05
0.0399695
-4.70925e-05
0.0399579
-3.59324e-05
0.0399571
-2.49793e-05
0.039958
-1.34249e-05
0.0399587
-3.44091e-06
0.0399623
5.82445e-06
0.0399652
1.42531e-05
0.0399686
2.17553e-05
0.0399722
2.62708e-05
0.0399761
3.37627e-05
0.0399782
3.82257e-05
0.0399843
4.16634e-05
0.0399883
4.411e-05
0.0399922
4.5607e-05
0.039994
4.62023e-05
0.0399996
4.59551e-05
0.040003
4.09385e-05
0.0400101
2.7216e-05
0.0400349
2.68657e-05
0.0400454
2.79207e-05
0.0400157
2.64731e-05
0.0400138
3.25883e-05
0.0400055
3.03266e-05
0.0400071
2.57444e-05
0.0400083
2.09012e-05
0.0400094
1.58525e-05
0.0400102
1.06512e-05
0.0400108
5.34925e-06
0.0400092
0.0400114
-9.75023e-06
0.0400288
-1.94842e-05
0.0400306
-2.71914e-05
0.0400284
-3.88622e-05
0.0400301
-4.64699e-05
0.0400277
-5.59954e-05
0.040029
-6.54057e-05
0.0400282
-7.46627e-05
0.0400273
-7.57083e-05
0.040026
-8.25074e-05
0.0400345
-9.09865e-05
0.0400347
-9.90606e-05
0.0400305
-0.00010065
0.0400338
-0.000115559
0.0400827
-0.000123813
0.0400414
-0.000119276
0.0399955
-0.000127797
0.0399752
-0.000133224
0.0400023
-0.000135442
0.0400109
-0.000142314
0.0400511
-0.000143813
0.0400113
-0.000141826
0.0399871
-0.000138296
0.0399808
-0.000133206
0.0399745
-0.000126569
0.0399684
-0.000118472
0.0399622
-0.000109004
0.0399574
-9.85196e-05
0.039954
-8.82182e-05
0.0399628
-8.14003e-05
0.0399971
-6.98856e-05
0.039958
-5.67851e-05
0.0399448
-4.3277e-05
0.0399436
-3.02148e-05
0.0399449
-1.88391e-05
0.0399473
-6.95761e-06
0.0399504
4.05164e-06
0.0399542
1.60458e-05
0.0399566
2.49252e-05
0.0399634
3.26209e-05
0.0399684
3.70929e-05
0.0399737
4.43367e-05
0.039977
4.83752e-05
0.0399843
5.12408e-05
0.0399894
5.09896e-05
0.0399943
5.36842e-05
0.0399969
5.14104e-05
0.0400052
3.62389e-05
0.0400252
1.42878e-05
0.0400568
3.75377e-05
0.0400222
3.61332e-05
0.0400171
4.21687e-05
0.0400077
3.76974e-05
0.04001
3.27956e-05
0.040012
2.75318e-05
0.0400136
2.19718e-05
0.040015
1.81799e-05
0.040014
1.22138e-05
0.0400168
4.13229e-06
0.0400173
0.0400156
-1.10796e-05
0.0400399
-2.01438e-05
0.0400397
-3.31957e-05
0.0400415
-4.22129e-05
0.0400391
-5.51888e-05
0.0400406
-6.60927e-05
0.0400399
-7.48936e-05
0.040037
-8.55577e-05
0.0400379
-9.60314e-05
0.0400365
-9.62391e-05
0.0400347
-0.000104135
0.0400426
-0.000115618
0.040042
-0.00012258
0.0400408
-0.000120868
0.040081
-0.000132398
0.0400529
-0.000119112
0.0399822
-0.00014667
0.0400028
-0.000155009
0.0400106
-0.000161986
0.0400179
-0.000165408
0.0400545
-0.000167198
0.0400131
-0.000167231
0.0399871
-0.000163443
0.039977
-0.000157762
0.0399688
-0.000150235
0.0399608
-0.0001409
0.0399529
-0.000129705
0.0399462
-0.000117429
0.0399417
-0.000105283
0.0399506
-9.62361e-05
0.039988
-8.21761e-05
0.0399439
-6.66722e-05
0.0399293
-5.11552e-05
0.0399281
-3.55444e-05
0.0399293
-1.99294e-05
0.0399317
-5.96147e-06
0.0399364
6.94748e-06
0.0399413
1.66346e-05
0.0399469
2.89755e-05
0.039951
3.7904e-05
0.0399595
4.53862e-05
0.0399662
4.94197e-05
0.039973
5.60301e-05
0.0399777
5.92805e-05
0.0399861
6.12376e-05
0.0399923
5.99863e-05
0.0399982
5.761e-05
0.0400076
4.62196e-05
0.0400366
4.39226e-05
0.0400591
4.67504e-05
0.0400193
5.28485e-05
0.040011
4.82949e-05
0.0400123
4.31776e-05
0.0400151
3.75796e-05
0.0400176
3.1578e-05
0.0400196
2.72484e-05
0.0400193
1.86569e-05
0.0400226
1.38765e-05
0.0400216
6.9677e-06
0.0400242
0.0400225
-1.24256e-05
0.0400523
-2.48431e-05
0.0400521
-3.52513e-05
0.0400519
-4.96512e-05
0.0400535
-6.00148e-05
0.040051
-7.23411e-05
0.0400523
-8.4588e-05
0.0400493
-9.67212e-05
0.04005
-0.000108687
0.0400484
-0.000120421
0.0400464
-0.000121831
0.040044
-0.000130837
0.040051
-0.00013937
0.0400493
-0.000113252
0.0400549
-0.000146071
0.0400857
-0.000162121
0.0399983
-0.00017492
0.0400156
-0.000182381
0.0400181
-0.000184283
0.0400198
-0.000182415
0.0400527
-0.0001946
0.0400252
-0.000194746
0.0399873
-0.000190716
0.0399729
-0.000184465
0.0399625
-0.000175955
0.0399523
-0.000165292
0.0399422
-0.000152593
0.0399335
-0.000138273
0.0399274
-0.000123623
0.039936
-0.00011205
0.0399765
-9.55201e-05
0.0399274
-7.72753e-05
0.039911
-5.86393e-05
0.0399095
-4.0785e-05
0.0399115
-2.4466e-05
0.0399154
-8.19284e-06
0.0399202
8.78805e-06
0.0399243
2.22937e-05
0.0399334
3.21931e-05
0.0399411
4.4403e-05
0.0399473
5.29052e-05
0.0399577
5.97119e-05
0.0399662
6.48732e-05
0.0399725
6.84567e-05
0.0399825
7.05567e-05
0.0399902
6.72806e-05
0.0400014
4.67472e-05
0.0400281
3.30797e-05
0.0400503
5.63281e-05
0.0400359
6.26446e-05
0.040013
6.01454e-05
0.0400135
5.49298e-05
0.0400175
4.90936e-05
0.040021
4.47312e-05
0.0400219
3.79234e-05
0.0400264
2.87578e-05
0.0400285
2.33115e-05
0.0400281
1.36525e-05
0.0400312
7.85958e-06
0.04003
0.0400304
-1.37811e-05
0.0400661
-2.75613e-05
0.0400659
-4.13491e-05
0.0400657
-5.31401e-05
0.0400653
-6.89378e-05
0.0400668
-8.07135e-05
0.040064
-9.6456e-05
0.040065
-0.000108109
0.0400617
-0.000121649
0.040062
-0.000134986
0.0400598
-0.000148042
0.040057
-0.00015069
0.0400536
-0.000160837
0.0400595
-0.00016437
0.0400584
-0.000166898
0.0400883
-0.000192427
0.0400238
-0.000202694
0.0400259
-0.000207476
0.0400229
-0.000206533
0.0400189
-0.000181632
0.0400278
-0.000210254
0.0400539
-0.000222605
0.0399996
-0.000220425
0.0399708
-0.00021358
0.0399557
-0.000204046
0.0399428
-0.000191694
0.0399299
-0.00017727
0.039919
-0.000160458
0.0399106
-0.000143363
0.0399189
-0.000128869
0.039962
-0.000109274
0.0399078
-8.77055e-05
0.0398894
-6.63538e-05
0.0398881
-4.5109e-05
0.0398902
-2.41877e-05
0.0398945
-5.3531e-06
0.0399013
9.90736e-06
0.039909
2.73705e-05
0.0399159
4.09086e-05
0.0399276
5.04487e-05
0.0399378
6.19701e-05
0.0399462
6.95174e-05
0.0399586
7.31615e-05
0.0399689
7.89981e-05
0.0399767
7.91543e-05
0.0399901
6.77583e-05
0.0400128
4.29895e-05
0.0400529
5.88703e-05
0.0400344
7.55933e-05
0.0400192
7.33047e-05
0.0400153
6.81185e-05
0.0400187
6.2147e-05
0.0400235
5.55095e-05
0.0400276
4.82982e-05
0.0400291
4.06107e-05
0.0400341
3.45394e-05
0.0400345
2.61634e-05
0.0400364
1.75635e-05
0.0400398
8.81677e-06
0.0400388
0.0400392
-1.51367e-05
0.0400812
-3.02822e-05
0.0400811
-4.54533e-05
0.0400809
-6.06575e-05
0.0400805
-7.38917e-05
0.04008
-8.9157e-05
0.0400793
-0.000104431
0.0400803
-0.00011968
0.040077
-0.000134857
0.0400772
-0.000149891
0.0400748
-0.000162682
0.0400698
-0.000177146
0.0400681
-0.000183105
0.0400654
-0.0001925
0.0400678
-0.000171087
0.0400669
-0.000208202
0.0400609
-0.000228082
0.0400457
-0.000238384
0.0400332
-0.000242796
0.0400233
-0.000236944
0.0400219
-0.000252377
0.0400693
-0.000257124
0.0400044
-0.000252873
0.0399665
-0.000245446
0.0399483
-0.000234827
0.0399322
-0.00022102
0.039916
-0.000204251
0.0399023
-0.000184973
0.0398913
-0.000164623
0.0398986
-0.000146764
0.0399441
-0.000123619
0.0398846
-9.86194e-05
0.0398644
-7.32978e-05
0.0398628
-4.88306e-05
0.0398657
-2.67384e-05
0.0398724
-3.05824e-06
0.0398777
1.6688e-05
0.0398893
3.22632e-05
0.0399003
4.95138e-05
0.0399103
6.23957e-05
0.0399249
7.09185e-05
0.0399377
8.11406e-05
0.0399484
8.71824e-05
0.0399628
9.11654e-05
0.0399727
8.72527e-05
0.039994
7.56182e-05
0.0400245
7.44066e-05
0.0400541
8.97668e-05
0.040019
8.78617e-05
0.0400211
8.28467e-05
0.0400203
7.68596e-05
0.0400247
7.00328e-05
0.0400303
6.44903e-05
0.0400332
5.43361e-05
0.0400393
4.76826e-05
0.0400408
3.66162e-05
0.0400456
2.72335e-05
0.0400458
1.96187e-05
0.0400475
9.84665e-06
0.0400485
0.0400491
-1.64802e-05
0.0400977
-3.09743e-05
0.0400955
-4.75253e-05
0.0400974
-6.41409e-05
0.0400971
-8.0834e-05
0.0400967
-9.76072e-05
0.0400961
-0.000114451
0.0400972
-0.000131338
0.0400938
-0.000148228
0.0400941
-0.000163049
0.0400896
-0.000181723
0.0400885
-0.000198118
0.0400845
-0.000212076
0.0400794
-0.00021742
0.0400731
-0.000228
0.0400774
-0.000245235
0.0400782
-0.000259143
0.0400597
-0.000269295
0.0400433
-0.000277307
0.0400313
-0.000282815
0.0400274
-0.000291308
0.0400778
-0.000292649
0.0400057
-0.00028846
0.0399623
-0.000280521
0.0399403
-0.000268714
0.0399204
-0.000253112
0.0399004
-0.000233652
0.0398828
-0.000211336
0.039869
-0.000187611
0.0398748
-0.000165812
0.0399223
-0.000138495
0.0398573
-0.000109061
0.039835
-7.97991e-05
0.0398335
-5.14088e-05
0.0398374
-2.37263e-05
0.0398447
-8.51043e-07
0.0398548
2.36126e-05
0.0398648
4.34326e-05
0.0398805
5.8473e-05
0.0398953
7.46886e-05
0.0399087
8.61492e-05
0.0399262
9.49519e-05
0.0399396
0.000101256
0.0399565
9.92467e-05
0.0399747
7.71434e-05
0.0400161
6.31394e-05
0.0400385
9.73094e-05
0.04002
0.000101951
0.0400144
9.72573e-05
0.0400258
9.33694e-05
0.0400242
8.64561e-05
0.0400316
7.86496e-05
0.0400381
7.00881e-05
0.0400417
6.08908e-05
0.0400485
5.11689e-05
0.0400505
4.30264e-05
0.0400537
3.25509e-05
0.0400563
2.18319e-05
0.0400582
1.09558e-05
0.0400594
0.04006
-1.7798e-05
0.0401155
-3.56314e-05
0.0401134
-5.35404e-05
0.0401153
-7.15554e-05
0.0401152
-8.97003e-05
0.0401149
-0.00010799
0.0401144
-0.000124421
0.0401136
-0.00014299
0.0401124
-0.000159643
0.0401107
-0.000180363
0.0401104
-0.000197013
0.0401051
-0.000215488
0.0401029
-0.000233649
0.0400975
-0.000251255
0.0400907
-0.000260047
0.0400862
-0.000275686
0.0400938
-0.0002899
0.0400739
-0.000302279
0.0400557
-0.000312323
0.0400413
-0.00031954
0.0400346
-0.000327413
0.0400857
-0.000331592
0.0400099
-0.000327663
0.0399584
-0.000319287
0.039932
-0.000306284
0.0399074
-0.000288635
0.0398828
-0.000266581
0.0398608
-0.000240477
0.0398429
-0.000212581
0.0398469
-0.000186094
0.0398958
-0.000153854
0.0398251
-0.00011965
0.0398008
-8.55318e-05
0.0397994
-5.26077e-05
0.0398044
-2.06321e-05
0.0398127
7.79574e-06
0.0398264
3.12474e-05
0.0398414
5.54418e-05
0.0398563
7.42909e-05
0.0398764
8.98071e-05
0.0398932
0.000102086
0.0399139
0.00011132
0.0399304
0.000115712
0.0399521
0.000101538
0.0399889
7.50846e-05
0.0400425
0.000104388
0.0400092
0.000117778
0.0400066
0.000113561
0.0400186
0.000111906
0.0400274
0.000102983
0.0400331
9.69825e-05
0.0400376
8.80646e-05
0.040047
7.83608e-05
0.0400514
7.00065e-05
0.0400568
5.71082e-05
0.0400634
4.57819e-05
0.0400651
3.41204e-05
0.040068
2.42175e-05
0.0400681
1.21496e-05
0.0400715
0.0400722
-1.70653e-05
0.0401325
-3.81994e-05
0.0401345
-5.74326e-05
0.0401345
-7.48107e-05
0.0401325
-9.43888e-05
0.0401344
-0.000114184
0.0401342
-0.00013423
0.0401336
-0.00015451
0.0401327
-0.000175009
0.0401312
-0.000193673
0.040129
-0.00021644
0.0401279
-0.000237171
0.0401237
-0.000255701
0.0401161
-0.000275807
0.0401108
-0.000293239
0.0401037
-0.000305555
0.0401061
-0.000324466
0.0400928
-0.000337458
0.0400687
-0.000349972
0.0400538
-0.00035742
0.0400421
-0.000351141
0.0400794
-0.00037047
0.0400292
-0.000371062
0.039959
-0.000362402
0.0399233
-0.000348178
0.0398931
-0.000328315
0.0398629
-0.00030299
0.0398354
-0.000272932
0.0398128
-0.000239829
0.0398138
-0.000207787
0.0398638
-0.000169663
0.039787
-0.000129528
0.0397607
-8.95032e-05
0.0397594
-5.12935e-05
0.0397662
-1.68237e-05
0.0397783
1.75724e-05
0.039792
4.62462e-05
0.0398127
7.09359e-05
0.0398316
9.15889e-05
0.0398558
0.000108285
0.0398765
0.000121223
0.039901
0.000128666
0.0399229
0.00013091
0.0399499
0.000118307
0.0400015
0.000129127
0.0400317
0.000135559
0.0400027
0.000134023
0.0400081
0.000126772
0.0400259
0.000123911
0.0400303
0.000117772
0.0400393
0.000108521
0.0400469
9.83314e-05
0.0400572
8.73479e-05
0.0400624
7.5701e-05
0.0400685
6.55269e-05
0.0400736
5.29143e-05
0.0400777
3.99685e-05
0.0400809
2.47752e-05
0.0400833
1.34319e-05
0.0400828
0.0400856
-2.02852e-05
0.0401528
-4.06472e-05
0.0401549
-5.91419e-05
0.040153
-8.18585e-05
0.0401552
-0.000100823
0.0401534
-0.00012211
0.0401555
-0.000143746
0.0401553
-0.000165751
0.0401547
-0.000188121
0.0401536
-0.000210815
0.0401517
-0.000231792
0.0401489
-0.000254926
0.0401468
-0.000278043
0.0401392
-0.000300959
0.0401338
-0.000323313
0.040126
-0.000344752
0.0401276
-0.000356791
0.0401048
-0.000376922
0.0400888
-0.000388483
0.0400654
-0.000392832
0.0400464
-0.000359162
0.0400457
-0.000399905
0.0400699
-0.000417373
0.0399764
-0.00041066
0.0399166
-0.000395258
0.0398777
-0.000372977
0.0398407
-0.000343936
0.0398064
-0.000308702
0.0397776
-0.000269836
0.039775
-0.000231051
0.039825
-0.000185839
0.0397417
-0.000138386
0.0397132
-9.17781e-05
0.0397128
-4.73823e-05
0.0397218
-5.54813e-06
0.0397364
2.9312e-05
0.0397571
6.34497e-05
0.0397786
8.86986e-05
0.0398064
0.000113047
0.0398314
0.000128732
0.0398608
0.000144063
0.0398857
0.000147435
0.0399196
0.000121321
0.039976
0.000114034
0.0400088
0.000149698
0.039996
0.000158969
0.0399935
0.000154158
0.0400129
0.000147561
0.0400325
0.000139325
0.0400385
0.000131777
0.0400468
0.000119107
0.0400595
0.000109489
0.0400668
9.70783e-05
0.0400748
8.40167e-05
0.0400816
7.04274e-05
0.0400871
5.6418e-05
0.0400917
4.40912e-05
0.0400932
2.95242e-05
0.0400978
1.48047e-05
0.0400976
0.0401004
-2.14158e-05
0.0401742
-4.29326e-05
0.0401764
-6.46287e-05
0.0401747
-8.4582e-05
0.0401752
-0.000108899
0.0401777
-0.000129614
0.0401762
-0.000152815
0.0401785
-0.000176535
0.0401784
-0.000200795
0.0401778
-0.000225589
0.0401765
-0.000250873
0.0401742
-0.000274548
0.0401705
-0.000302492
0.0401671
-0.000326449
0.0401577
-0.000352131
0.0401517
-0.000377084
0.0401525
-0.000400834
0.0401286
-0.000414711
0.0401027
-0.000433993
0.0400847
-0.000447778
0.0400602
-0.000445136
0.0400431
-0.000464477
0.0400893
-0.000473466
0.0399854
-0.000465129
0.0399082
-0.000448693
0.0398613
-0.000423746
0.0398157
-0.000390408
0.0397731
-0.000349512
0.0397367
-0.000303196
0.0397286
-0.00025617
0.039778
-0.000202282
0.0396879
-0.00014622
0.0396572
-9.16658e-05
0.0396582
-3.97844e-05
0.0396699
8.23053e-06
0.0396884
5.00221e-05
0.0397153
8.58536e-05
0.0397427
0.000115596
0.0397766
0.000139452
0.0398076
0.000157816
0.0398424
0.000167184
0.0398763
0.00015812
0.0399286
0.000131276
0.0400028
0.000164627
0.0399754
0.000182916
0.0399778
0.00018073
0.0399957
0.000172382
0.0400213
0.00016612
0.0400387
0.00015827
0.0400464
0.000145084
0.04006
0.000134787
0.0400698
0.000121559
0.0400801
0.000107566
0.0400888
9.29471e-05
0.0400962
7.98316e-05
0.0401003
6.43133e-05
0.0401072
4.64861e-05
0.0401111
3.2451e-05
0.0401119
1.42613e-05
0.0401157
0.0401147
-2.24402e-05
0.0401967
-4.29975e-05
0.040197
-6.77987e-05
0.0401995
-9.092e-05
0.0401983
-0.000112466
0.0401993
-0.000138565
0.0402023
-0.000161253
0.0402012
-0.000186658
0.0402038
-0.000210788
0.040202
-0.000237697
0.0402034
-0.000265351
0.0402018
-0.000293731
0.0401989
-0.000322676
0.0401961
-0.000351992
0.040187
-0.000381376
0.0401811
-0.000408375
0.0401795
-0.000436444
0.0401566
-0.000464891
0.0401312
-0.000482693
0.0401025
-0.000500917
0.0400784
-0.000512218
0.0400544
-0.00050718
0.0400843
-0.000528428
0.0400067
-0.000527038
0.0399069
-0.000509886
0.0398441
-0.000482218
0.039788
-0.00044393
0.0397348
-0.000395711
0.0396885
-0.000340698
0.0396736
-0.000283523
0.0397208
-0.000218917
0.0396233
-0.000152469
0.0395907
-8.76811e-05
0.0395935
-2.71615e-05
0.0396094
2.58021e-05
0.0396355
7.50426e-05
0.0396661
0.000112688
0.0397051
0.000146754
0.0397426
0.000167752
0.0397866
0.000180338
0.0398298
0.000187193
0.0398694
0.000185136
0.0399307
0.00019871
0.0399893
0.00021043
0.0399637
0.000211036
0.0399772
0.000201019
0.0400057
0.000190813
0.0400315
0.000186546
0.040043
0.000174759
0.0400581
0.0001637
0.0400711
0.000149562
0.040084
0.000134544
0.0400951
0.0001188
0.0401045
0.000104496
0.0401105
8.57113e-05
0.040119
7.05782e-05
0.0401223
5.31648e-05
0.0401285
3.55554e-05
0.0401295
1.78179e-05
0.0401335
0.0401325
-2.33338e-05
0.04022
-4.68232e-05
0.0402204
-6.85705e-05
0.0402213
-9.27293e-05
0.0402225
-0.000119431
0.040226
-0.000142766
0.0402256
-0.000168885
0.0402273
-0.000195888
0.0402308
-0.000223863
0.0402299
-0.000252879
0.0402324
-0.000282968
0.0402319
-0.000314119
0.04023
-0.000344241
0.0402262
-0.000377172
0.04022
-0.000408669
0.0402126
-0.000440342
0.0402112
-0.000475381
0.0401917
-0.000507172
0.040163
-0.000536699
0.040132
-0.000554497
0.0400962
-0.000565373
0.0400652
-0.000527458
0.0400463
-0.000577558
0.0400568
-0.000595934
0.0399252
-0.000580644
0.0398289
-0.000550258
0.0397577
-0.000506089
0.0396906
-0.000449684
0.0396321
-0.000383378
0.0396073
-0.000313398
0.0396508
-0.000235401
0.0395453
-0.000155662
0.039511
-7.90989e-05
0.0395169
-8.50368e-06
0.0395388
5.48672e-05
0.0395721
0.000108095
0.0396128
0.000151469
0.0396617
0.000181438
0.0397126
0.00019302
0.039775
0.000187226
0.0398356
0.000179029
0.0398776
0.000187253
0.0399225
0.000236439
0.0399401
0.000243895
0.0399563
0.000238214
0.0399828
0.000227893
0.040016
0.000219285
0.0400401
0.000208785
0.0400535
0.00019681
0.0400701
0.000181613
0.0400863
0.000165419
0.0401002
0.00014842
0.0401121
0.000132783
0.0401202
0.000112621
0.0401306
9.60682e-05
0.0401356
7.5191e-05
0.0401432
5.80956e-05
0.0401456
3.68192e-05
0.0401508
1.94517e-05
0.0401508
0.0401519
-2.40705e-05
0.0402441
-4.8327e-05
0.0402447
-7.2895e-05
0.0402459
-9.79431e-05
0.0402475
-0.000121606
0.0402496
-0.000148068
0.0402521
-0.000175471
0.0402547
-0.000203954
0.0402593
-0.000233683
0.0402597
-0.000264748
0.0402635
-0.000295236
0.0402624
-0.000329209
0.040264
-0.000364691
0.0402617
-0.00040155
0.0402568
-0.000437619
0.0402487
-0.000468581
0.0402421
-0.000511277
0.0402344
-0.000553457
0.0402051
-0.000589811
0.0401684
-0.000622804
0.0401292
-0.000640488
0.0400829
-0.000648691
0.0400545
-0.000672062
0.0400802
-0.000677647
0.0399308
-0.000663547
0.0398148
-0.00063103
0.0397251
-0.000580424
0.03964
-0.000513076
0.0395647
-0.000433001
0.0395273
-0.000346278
0.0395641
-0.000251426
0.0394504
-0.000155639
0.0394152
-6.4155e-05
0.0394254
1.89507e-05
0.0394557
9.16929e-05
0.0394993
0.000149537
0.039555
0.000194136
0.0396171
0.000213212
0.0396935
0.000224286
0.0397639
0.000242864
0.039817
0.000238574
0.0398819
0.000263986
0.039897
0.000282434
0.0399216
0.000281092
0.0399576
0.000268577
0.0399953
0.000253481
0.0400311
0.000246004
0.0400475
0.000232857
0.0400666
0.000216369
0.0400866
0.000198773
0.0401038
0.000182307
0.0401166
0.000163132
0.0401313
0.00014343
0.0401399
0.000123297
0.0401508
0.00010284
0.0401561
8.41445e-05
0.0401619
6.12521e-05
0.0401685
4.22504e-05
0.0401698
2.11605e-05
0.0401719
0.0401731
-2.46237e-05
0.0402687
-4.94643e-05
0.0402695
-7.46659e-05
0.0402711
-9.83975e-05
0.0402713
-0.000124875
0.0402761
-0.000152273
0.0402795
-0.000182799
0.0402852
-0.000210603
0.0402871
-0.000241918
0.040291
-0.000272899
0.0402945
-0.000309752
0.0402993
-0.000344551
0.0402988
-0.000383403
0.0403005
-0.000424348
0.0402978
-0.000467224
0.0402915
-0.000507792
0.0402827
-0.000555282
0.0402819
-0.000601032
0.0402509
-0.000645899
0.0402132
-0.000687933
0.0401713
-0.000724726
0.0401197
-0.000743353
0.0400732
-0.000754094
0.0400909
-0.000772374
0.0399491
-0.000761462
0.0398038
-0.000727097
0.0396908
-0.000669419
0.0395823
-0.000588988
0.0394843
-0.00048932
0.0394276
-0.000380552
0.0394553
-0.00026613
0.039336
-0.000149635
0.0392987
-4.02997e-05
0.0393161
5.7218e-05
0.0393582
0.000139123
0.0394174
0.000205984
0.0394881
0.000237123
0.039586
0.000253637
0.039677
0.00028061
0.0397369
0.000306136
0.0397915
0.000320245
0.0398678
0.00033006
0.0398872
0.000327022
0.0399247
0.000318094
0.0399665
0.000304049
0.0400094
0.000291457
0.0400437
0.000276825
0.0400622
0.000260694
0.0400828
0.000241369
0.0401059
0.000221113
0.0401241
0.000200143
0.0401376
0.000178625
0.0401528
0.000156697
0.0401618
0.000136468
0.040171
0.000111994
0.0401805
8.93646e-05
0.0401845
6.86252e-05
0.0401892
4.58053e-05
0.0401926
2.29339e-05
0.0401948
0.040196
-2.4967e-05
0.0402937
-4.81657e-05
0.0402927
-7.37848e-05
0.0402967
-0.000102031
0.0402995
-0.000129091