/*--------------------------------*- C++ -*----------------------------------*\
  =========                 |
  \\      /  F ield         | OpenFOAM: The Open Source CFD Toolbox
   \\    /   O peration     | Website:  https://openfoam.org
    \\  /    A nd           | Version:  12
     \\/     M anipulation  |
\*---------------------------------------------------------------------------*/
FoamFile
{
    format      ascii;
    class       volVectorField;
    location    "320";
    object      U;
}
// * * * * * * * * * * * * * * * * * * * * * * * * * * * * * * * * * * * * * //

dimensions      [0 1 -1 0 0 0 0];

internalField   nonuniform List<vector> 
16227
(
(2 -7.8976e-06 -8.12966e-23)
(2 -2.36119e-05 8.17086e-23)
(2 -3.91774e-05 -8.17096e-23)
(2 -5.45391e-05 -8.23247e-23)
(2 -6.96023e-05 8.23258e-23)
(2 -8.42669e-05 8.33186e-23)
(2 -9.84408e-05 6.51356e-25)
(2 -0.000112011 -1.68643e-22)
(2 -0.000124855 2.55725e-22)
(2 -0.000136829 -1.7103e-22)
(2 -0.000147786 0)
(2 -0.000157576 1.75829e-22)
(2 -0.000166084 0)
(2 -0.000173179 0)
(2 -0.000178673 0)
(2 -0.00018242 0)
(2 -0.000184274 0)
(2 -0.000184102 0)
(2 -0.000181789 0)
(2 -0.000177246 0)
(2 -0.00017042 -1.98922e-22)
(2 -0.0001613 -2.31708e-24)
(2 -0.000149917 2.01238e-22)
(2 -0.000136342 0)
(2 -0.000120702 -2.07311e-22)
(2 -0.000103177 2.0731e-22)
(2 -8.3999e-05 0)
(2 -6.34359e-05 1.05552e-22)
(2 -4.18101e-05 0)
(2 -1.94834e-05 0)
(2 3.15704e-06 0)
(2 2.57338e-05 0)
(2 4.78798e-05 0)
(2 6.92217e-05 2.12772e-22)
(2 8.94167e-05 -7.42449e-25)
(2 0.000108158 -2.12035e-22)
(2 0.000125177 0)
(2 0.000140258 2.08443e-22)
(2 0.000153232 -1.57786e-24)
(2 0.000163979 -2.06865e-22)
(2 0.000172431 0)
(2 0.000178562 0)
(2 0.000182391 0)
(2 0.000183971 0)
(2 0.000183392 0)
(2 0.000180762 0)
(2 0.000176208 0)
(2 0.000169879 0)
(2 0.000161918 0)
(2 0.000152471 0)
(2 0.000141697 0)
(2 0.000129747 0)
(2 0.00011678 0)
(2 0.000102924 0)
(2 8.83171e-05 -8.95385e-23)
(2 7.30774e-05 8.95422e-23)
(2 5.73354e-05 0)
(2 4.12194e-05 0)
(2 2.48409e-05 0)
(2 8.29769e-06 8.81885e-23)
(2.00004 -3.2504e-05 2.07905e-25)
(2.00004 -9.72212e-05 0)
(2.00004 -0.000161514 0)
(2.00004 -0.000225182 0)
(2.00004 -0.000287893 -1.39276e-22)
(2.00003 -0.000349358 0)
(2.00003 -0.000409243 0)
(2.00003 -0.000467183 -4.28472e-22)
(2.00003 -0.000522736 2.86182e-22)
(2.00003 -0.000575432 -5.84227e-22)
(2.00003 -0.000624717 2.35316e-21)
(2.00002 -0.000670025 -1.48312e-21)
(2.00002 -0.000710928 7.4846e-22)
(2.00002 -0.000746885 0)
(2.00001 -0.000777189 0)
(2.00001 -0.000801243 0)
(2 -0.000818438 0)
(2 -0.000828202 0)
(1.99999 -0.000830016 0)
(1.99999 -0.000823437 0)
(1.99998 -0.000808144 0)
(1.99998 -0.000783988 0)
(1.99997 -0.000750956 0)
(1.99997 -0.000709171 0)
(1.99996 -0.000658978 0)
(1.99996 -0.000600921 -3.53597e-22)
(1.99995 -0.000535751 3.53609e-22)
(1.99995 -0.000464378 -1.78489e-22)
(1.99995 -0.000387926 0)
(1.99995 -0.00030767 0)
(1.99995 -0.000224979 0)
(1.99995 -0.000141252 0)
(1.99995 -5.78893e-05 0)
(1.99995 2.36934e-05 0)
(1.99995 0.000102174 0)
(1.99996 0.000176339 -3.57172e-22)
(1.99996 0.000245114 2.06668e-24)
(1.99997 0.000307594 2.4057e-24)
(1.99997 0.00036305 2.70157e-24)
(1.99998 0.000410944 3.50012e-22)
(1.99998 0.000450914 3.43898e-22)
(1.99999 0.000482769 -3.43891e-22)
(1.99999 0.000506475 0)
(2 0.000522153 0)
(2 0.000530022 0)
(2.00001 0.000530416 0)
(2.00001 0.000523745 0)
(2.00002 0.000510481 0)
(2.00002 0.000491127 0)
(2.00002 0.000466211 0)
(2.00003 0.000436276 3.1121e-22)
(2.00003 0.000401849 -6.20872e-22)
(2.00003 0.000363497 -6.12681e-22)
(2.00003 0.00032174 6.12699e-22)
(2.00003 0.000277039 -6.05189e-22)
(2.00004 0.000229889 9.06326e-22)
(2.00004 0.000180783 -3.01257e-22)
(2.00004 0.000130181 1.49686e-22)
(2.00004 7.85325e-05 -1.49689e-22)
(2.00004 2.62225e-05 -1.89941e-25)
(2.00013 -6.14549e-05 1.37056e-22)
(2.00013 -0.00018393 0)
(2.00013 -0.000305758 0)
(2.00012 -0.000426611 0)
(2.00012 -0.000545955 1.39258e-22)
(2.00012 -0.000663293 -2.80987e-22)
(2.00012 -0.000778107 -2.2306e-24)
(2.00011 -0.000889758 4.25374e-22)
(2.00011 -0.000997499 1.43303e-22)
(2.0001 -0.00110054 5.8328e-22)
(2.00009 -0.00119795 -5.80173e-22)
(2.00008 -0.00128858 -1.18354e-21)
(2.00008 -0.00137171 1.49867e-22)
(2.00006 -0.00144636 0)
(2.00005 -0.0015112 1.54158e-22)
(2.00004 -0.00156512 0)
(2.00003 -0.00160696 0)
(2.00001 -0.0016356 0)
(2 -0.00164998 -6.56131e-22)
(1.99998 -0.00164918 6.56069e-22)
(1.99996 -0.00163249 -3.36554e-22)
(1.99994 -0.00159953 3.36561e-22)
(1.99993 -0.00155011 0)
(1.99991 -0.0014843 -3.47979e-22)
(1.99989 -0.00140258 -3.22966e-24)
(1.99988 -0.0013058 3.51246e-22)
(1.99987 -0.00119517 0)
(1.99985 -0.00107227 0)
(1.99985 -0.000939007 0)
(1.99984 -0.000797585 0)
(1.99984 -0.000650426 1.80691e-22)
(1.99984 -0.000500111 -3.61923e-22)
(1.99984 -0.000349184 0)
(1.99984 -0.000200226 0)
(1.99985 -5.56739e-05 3.59522e-22)
(1.99986 8.22003e-05 -3.59547e-22)
(1.99987 0.000211384 0)
(1.99988 0.000330167 0)
(1.9999 0.00043712 0)
(1.99991 0.000531183 0)
(1.99993 0.000611613 0)
(1.99995 0.000677966 0)
(1.99996 0.000730108 -1.69571e-22)
(1.99998 0.000768153 0)
(1.99999 0.000792435 0)
(2.00001 0.000803476 0)
(2.00002 0.00080196 -1.60792e-22)
(2.00003 0.000788666 3.2317e-22)
(2.00004 0.000764455 0)
(2.00005 0.000730255 1.57417e-22)
(2.00006 0.000686999 0)
(2.00007 0.00063564 3.0961e-22)
(2.00008 0.00057717 6.11868e-22)
(2.00009 0.000512472 1.48169e-22)
(2.00009 0.000442401 -6.07833e-22)
(2.0001 0.000367876 3.00698e-22)
(2.0001 0.000289775 -3.00802e-22)
(2.0001 0.000208914 0)
(2.0001 0.000126131 0)
(2.0001 4.21289e-05 -1.48715e-22)
(2.00028 -9.16226e-05 0)
(2.00028 -0.000274363 0)
(2.00028 -0.000456265 -1.37078e-22)
(2.00027 -0.000636913 0)
(2.00027 -0.00081557 -1.39073e-22)
(2.00026 -0.000991608 1.39061e-22)
(2.00026 -0.00116429 0)
(2.00025 -0.00133276 -4.28149e-22)
(2.00024 -0.00149595 4.26294e-22)
(2.00023 -0.00165277 0)
(2.00021 -0.00180197 -5.88547e-22)
(2.00019 -0.00194172 -1.77547e-21)
(2.00018 -0.00207098 -3.00045e-22)
(2.00015 -0.00218837 0)
(2.00013 -0.00229186 -1.5409e-22)
(2.0001 -0.00237976 0)
(2.00007 -0.0024503 0)
(2.00004 -0.00250177 1.29458e-21)
(2.00001 -0.00253253 -1.2949e-21)
(1.99997 -0.00254098 0)
(1.99994 -0.00252599 -3.36851e-22)
(1.9999 -0.00248692 -4.1687e-24)
(1.99986 -0.00242325 -3.94798e-24)
(1.99982 -0.00233491 3.45015e-22)
(1.99979 -0.00222248 0)
(1.99975 -0.00208707 0)
(1.99972 -0.00193037 0)
(1.9997 -0.00175459 1.79893e-22)
(1.99968 -0.00156247 9.10031e-25)
(1.99966 -0.00135721 1.81194e-22)
(1.99965 -0.00114241 -1.15429e-25)
(1.99965 -0.000921858 0)
(1.99965 -0.000699372 0)
(1.99966 -0.0004788 0)
(1.99968 -0.00026381 -3.60652e-22)
(1.99969 -5.78108e-05 1.83492e-24)
(1.99972 0.000136137 2.23504e-24)
(1.99974 0.000315432 2.59125e-24)
(1.99977 0.000477893 7.05294e-22)
(1.9998 0.000621899 -3.51169e-22)
(1.99984 0.000746284 0)
(1.99987 0.000850359 -1.71562e-22)
(1.9999 0.000933856 1.69572e-22)
(1.99994 0.000996893 0)
(1.99997 0.00103994 0)
(2 0.00106372 0)
(2.00003 0.00106919 -1.62361e-22)
(2.00005 0.0010575 0)
(2.00008 0.00102986 0)
(2.0001 0.000987601 -3.14493e-22)
(2.00012 0.000932104 -6.20343e-22)
(2.00013 0.000864754 1.23539e-21)
(2.00015 0.000787014 -6.1529e-22)
(2.00016 0.000700057 -7.58668e-22)
(2.00018 0.000605241 6.06365e-22)
(2.00018 0.000503898 0)
(2.00019 0.000397309 0)
(2.0002 0.000286639 1.48858e-22)
(2.0002 0.000173144 0)
(2.0002 5.78568e-05 0)
(2.00049 -0.000122092 0)
(2.00049 -0.000365747 0)
(2.00049 -0.000608413 7.56942e-25)
(2.00048 -0.000849623 0)
(2.00048 -0.00108849 0)
(2.00047 -0.00132426 -2.77813e-22)
(2.00046 -0.00155601 -4.22642e-22)
(2.00044 -0.00178268 4.20489e-22)
(2.00043 -0.00200295 0)
(2.00041 -0.00221539 0)
(2.00038 -0.00241847 -5.86522e-22)
(2.00036 -0.00260965 3.54287e-21)
(2.00032 -0.00278765 -2.98001e-22)
(2.00029 -0.00295041 3.00961e-22)
(2.00025 -0.0030954 0)
(2.0002 -0.00322024 0)
(2.00015 -0.00332243 6.37647e-22)
(2.00009 -0.00339972 1.94193e-21)
(2.00004 -0.0034498 -9.68468e-22)
(1.99997 -0.00346994 0)
(1.99991 -0.00345872 0)
(1.99984 -0.0034153 0)
(1.99977 -0.00333855 0)
(1.99971 -0.00322825 -3.49733e-22)
(1.99965 -0.00308499 -3.5152e-24)
(1.99959 -0.00291012 -3.12413e-24)
(1.99953 -0.00270578 3.56492e-22)
(1.99949 -0.00247487 1.80767e-22)
(1.99945 -0.00222098 8.00791e-25)
(1.99942 -0.00194841 -1.81483e-22)
(1.9994 -0.00166203 5.47909e-22)
(1.99939 -0.00136701 -3.65034e-22)
(1.99939 -0.00106857 -3.64672e-22)
(1.99941 -0.000771914 3.64725e-22)
(1.99943 -0.000482112 3.62267e-22)
(1.99946 -0.000203819 -3.62316e-22)
(1.9995 5.87659e-05 0)
(1.99954 0.000302073 0)
(1.99959 0.000523131 -3.52231e-22)
(1.99964 0.000719711 3.52195e-22)
(1.9997 0.000890212 3.45265e-22)
(1.99976 0.0010337 -1.73651e-22)
(1.99981 0.00114982 0)
(1.99987 0.00123873 0)
(1.99992 0.00130105 0)
(1.99998 0.00133774 0)
(2.00003 0.00135011 0)
(2.00007 0.00133967 0)
(2.00011 0.00130805 -1.58377e-22)
(2.00015 0.00125703 -7.80849e-22)
(2.00019 0.00118845 6.24439e-22)
(2.00022 0.00110418 6.13252e-22)
(2.00024 0.00100608 -9.18143e-22)
(2.00027 0.000895733 6.04221e-22)
(2.00029 0.000775004 -6.04218e-22)
(2.0003 0.00064564 0)
(2.00032 0.000509319 0)
(2.00032 0.000367578 -6.83208e-25)
(2.00033 0.000222088 0)
(2.00033 7.42336e-05 0)
(2.00077 -0.000152899 -1.34356e-22)
(2.00077 -0.000458156 0)
(2.00076 -0.000762335 1.4493e-25)
(2.00075 -0.00106496 1.3612e-22)
(2.00074 -0.00136504 0)
(2.00073 -0.00166172 8.8517e-25)
(2.00072 -0.00195392 -2.79421e-22)
(2.0007 -0.0022404 2.79341e-22)
(2.00067 -0.00251964 0)
(2.00064 -0.00278983 0)
(2.00061 -0.00304925 2.89339e-22)
(2.00057 -0.00329469 1.17253e-21)
(2.00052 -0.00352435 -5.96492e-22)
(2.00046 -0.00373563 3.01545e-22)
(2.0004 -0.00392555 0)
(2.00033 -0.00409087 -3.13632e-22)
(2.00025 -0.00422833 3.13728e-22)
(2.00017 -0.00433507 9.7284e-24)
(2.00008 -0.00440776 -1.45662e-21)
(1.99998 -0.00444252 -3.32951e-22)
(1.99988 -0.00443763 3.31122e-22)
(1.99978 -0.00439186 -4.60979e-24)
(1.99967 -0.0043033 3.42603e-22)
(1.99957 -0.00417159 0)
(1.99947 -0.00399717 0)
(1.99937 -0.00378155 0)
(1.99929 -0.00352736 0)
(1.99921 -0.0032382 -1.80725e-22)
(1.99915 -0.00291867 0)
(1.9991 -0.00257419 0)
(1.99907 -0.00221111 5.52917e-22)
(1.99905 -0.00183619 -3.67408e-22)
(1.99906 -0.00145615 0)
(1.99907 -0.00107784 0)
(1.9991 -0.000707838 0)
(1.99915 -0.000352171 0)
(1.99921 -1.6332e-05 3.59722e-22)
(1.99928 0.000295074 -2.97466e-24)
(1.99935 0.000578211 -5.34814e-22)
(1.99944 0.000830213 0)
(1.99952 0.0010491 0)
(1.99961 0.00123369 3.42051e-22)
(1.9997 0.00138356 -5.12122e-22)
(1.99978 0.00149896 0)
(1.99987 0.00158072 0)
(1.99995 0.00163015 0)
(2.00002 0.00164892 0)
(2.00009 0.00163897 0)
(2.00016 0.00160239 4.72948e-22)
(2.00022 0.00154147 1.24356e-21)
(2.00027 0.00145856 -1.24465e-21)
(2.00032 0.00135612 6.10845e-22)
(2.00036 0.00123621 -3.0616e-22)
(2.0004 0.00110105 0)
(2.00043 0.000952961 1.49414e-22)
(2.00045 0.000794117 0)
(2.00047 0.000626557 0)
(2.00049 0.000452255 -1.48156e-22)
(2.00049 0.000273272 0)
(2.0005 9.1351e-05 1.46276e-22)
(2.0011 -0.000184178 1.12987e-24)
(2.0011 -0.000551992 0)
(2.00109 -0.000918707 0)
(2.00109 -0.00128388 -1.34745e-22)
(2.00107 -0.00164649 0)
(2.00106 -0.00200559 1.37477e-22)
(2.00104 -0.00236002 -1.3874e-22)
(2.00101 -0.00270834 2.7753e-22)
(2.00098 -0.00304888 0)
(2.00094 -0.0033795 -5.73389e-22)
(2.00089 -0.00369823 2.84107e-22)
(2.00083 -0.00400161 5.67131e-24)
(2.00076 -0.00428658 1.18776e-21)
(2.00069 -0.00455032 -6.04508e-22)
(2.0006 -0.00478927 -4.79108e-24)
(2.0005 -0.00499936 -1.62941e-22)
(2.00039 -0.00517651 3.17361e-21)
(2.00027 -0.00531707 -1.25263e-21)
(2.00014 -0.00541639 -2.11296e-21)
(2 -0.00546953 2.9714e-21)
(1.99986 -0.00547426 3.34392e-22)
(1.99971 -0.00542866 -3.43671e-22)
(1.99955 -0.00532991 -4.68597e-24)
(1.9994 -0.00517736 3.48448e-22)
(1.99925 -0.0049712 0)
(1.99912 -0.00471311 0)
(1.99899 -0.00440617 0)
(1.99888 -0.00405475 0)
(1.99878 -0.0036645 1.84543e-22)
(1.99871 -0.00324218 0)
(1.99866 -0.00279584 -5.54486e-22)
(1.99864 -0.00233405 0)
(1.99863 -0.00186529 3.69812e-22)
(1.99866 -0.00139826 -3.69897e-22)
(1.9987 -0.000941286 3.66886e-22)
(1.99877 -0.000501989 -2.36274e-24)
(1.99885 -8.72955e-05 -7.2649e-22)
(1.99895 0.000297087 3.61864e-22)
(1.99906 0.000646415 -1.76987e-22)
(1.99917 0.000957113 3.54992e-22)
(1.9993 0.00122686 1.74817e-22)
(1.99942 0.00145429 0)
(1.99955 0.00163898 1.70109e-22)
(1.99967 0.00178136 0)
(1.99979 0.00188254 0)
(1.99991 0.00194423 1.63572e-22)
(2.00002 0.0019686 -1.61407e-22)
(2.00012 0.00195806 0)
(2.00021 0.00191525 1.88328e-21)
(2.0003 0.00184304 1.22581e-21)
(2.00037 0.00174435 -2.48026e-21)
(2.00044 0.00162204 -6.07812e-22)
(2.0005 0.00147863 1.36119e-21)
(2.00055 0.00131702 -6.02593e-22)
(2.00059 0.00113991 -1.49403e-22)
(2.00063 0.000949907 0)
(2.00066 0.000749464 2.93899e-22)
(2.00068 0.000540965 -1.471e-22)
(2.00069 0.000326868 0)
(2.0007 0.000109267 -1.04839e-24)
(2.0015 -0.000215966 1.33194e-22)
(2.0015 -0.000647394 0)
(2.00149 -0.0010778 0)
(2.00148 -0.0015068 1.3363e-22)
(2.00147 -0.0019334 -8.6936e-25)
(2.00144 -0.00235663 1.35315e-22)
(2.00142 -0.00277529 -1.36267e-22)
(2.00138 -0.00318779 -4.16776e-22)
(2.00134 -0.00359235 2.77917e-22)
(2.00129 -0.0039865 -5.6936e-22)
(2.00123 -0.00436795 -1.50535e-22)
(2.00115 -0.00473318 8.66587e-22)
(2.00107 -0.00507798 -2.36464e-21)
(2.00097 -0.0053988 -1.20738e-21)
(2.00085 -0.00569178 1.20756e-21)
(2.00072 -0.00595188 -1.54992e-22)
(2.00057 -0.00617422 3.79065e-21)
(2.00041 -0.00635371 -6.24389e-22)
(2.00023 -0.0064845 -6.51559e-22)
(2.00004 -0.00656058 -1.98995e-21)
(1.99984 -0.0065788 3.38329e-22)
(1.99963 -0.00653634 0)
(1.99942 -0.00642935 0)
(1.99921 -0.00625659 -3.5491e-22)
(1.999 -0.00601797 -4.34492e-24)
(1.99881 -0.00571521 3.59422e-22)
(1.99863 -0.00535176 0)
(1.99847 -0.00493289 3.69524e-22)
(1.99834 -0.00446547 -5.54035e-22)
(1.99823 -0.00395779 0)
(1.99816 -0.00341987 1.83895e-22)
(1.99812 -0.00286243 -7.47908e-22)
(1.99812 -0.00229605 7.61555e-25)
(1.99815 -0.00173156 7.45332e-22)
(1.99821 -0.00117935 -2.06446e-24)
(1.9983 -0.000648856 -3.70072e-22)
(1.99841 -0.000148568 0)
(1.99854 0.000314515 3.60832e-22)
(1.99869 0.000734678 -3.95318e-24)
(1.99886 0.0011077 -3.56806e-22)
(1.99903 0.00143093 -3.50338e-22)
(1.9992 0.00170288 0)
(1.99937 0.00192324 0)
(1.99954 0.00209271 -1.68138e-22)
(1.99971 0.00221286 0)
(1.99986 0.00228589 -3.26859e-22)
(2.00001 0.00231452 1.6139e-22)
(2.00015 0.00230177 -3.17538e-22)
(2.00027 0.0022509 -1.8822e-21)
(2.00039 0.00216543 -1.23327e-21)
(2.00049 0.00204906 6.21085e-22)
(2.00058 0.00190475 -6.16104e-24)
(2.00067 0.00173581 -9.04628e-22)
(2.00073 0.0015457 2.98111e-22)
(2.00079 0.00133752 0)
(2.00084 0.00111436 0)
(2.00088 0.000879065 -1.1924e-24)
(2.00091 0.00063443 0)
(2.00093 0.000383308 0)
(2.00094 0.000128122 -1.45211e-22)
(2.00197 -0.000248276 0)
(2.00196 -0.000744381 0)
(2.00195 -0.0012396 1.31304e-22)
(2.00194 -0.00173374 -1.33375e-22)
(2.00192 -0.00222588 0)
(2.0019 -0.00271504 -2.68617e-22)
(2.00187 -0.00320007 1.34927e-22)
(2.00183 -0.00367933 1.36216e-22)
(2.00177 -0.00415087 0)
(2.00171 -0.00461202 0)
(2.00163 -0.0050601 -4.30018e-22)
(2.00154 -0.00549152 2.83179e-22)
(2.00143 -0.00590152 1.1815e-21)
(2.0013 -0.00628485 3.56472e-21)
(2.00115 -0.00663746 0)
(2.00098 -0.00695356 -6.15966e-22)
(2.00079 -0.0072273 -2.5178e-21)
(2.00058 -0.00745187 -6.39577e-22)
(2.00035 -0.00762015 -1.309e-21)
(2.0001 -0.00772474 3.22458e-22)
(1.99983 -0.00776115 -6.80193e-22)
(1.99956 -0.0077255 -5.75667e-24)
(1.99927 -0.00761264 -5.51619e-24)
(1.99899 -0.0074205 3.52188e-22)
(1.99871 -0.00714852 0)
(1.99845 -0.00679825 0)
(1.9982 -0.00637362 0)
(1.99799 -0.00588087 1.87213e-22)
(1.99781 -0.00532819 -1.88604e-22)
(1.99766 -0.0047257 0)
(1.99756 -0.00408581 3.73352e-22)
(1.99751 -0.00342182 -3.78319e-22)
(1.9975 -0.00274679 0)
(1.99754 -0.00207417 0)
(1.99762 -0.00141669 5.62279e-22)
(1.99774 -0.000785921 -3.73756e-22)
(1.99789 -0.00019215 -3.67331e-22)
(1.99806 0.000356176 7.30841e-22)
(1.99826 0.000852386 -3.63397e-22)
(1.99848 0.0012916 0)
(1.9987 0.00167095 5.24751e-22)
(1.99893 0.00198886 -3.49137e-22)
(1.99916 0.00224537 -1.70883e-22)
(1.99939 0.00244158 3.36324e-22)
(1.9996 0.00257965 0)
(1.99981 0.00266241 1.63292e-22)
(2 0.00269329 -3.20938e-22)
(2.00018 0.00267607 3.17475e-22)
(2.00035 0.00261478 -1.23095e-21)
(2.0005 0.00251362 6.37326e-22)
(2.00063 0.00237676 3.05925e-22)
(2.00075 0.00220775 1.49956e-22)
(2.00086 0.00201073 -1.49961e-22)
(2.00095 0.00178953 -1.48423e-22)
(2.00103 0.00154781 2.92176e-22)
(2.00109 0.00128907 -8.87436e-25)
(2.00114 0.00101658 -2.9091e-22)
(2.00118 0.000733515 1.43597e-22)
(2.0012 0.000443093 0)
(2.00121 0.000148078 0)
(2.0025 -0.00028104 0)
(2.00249 -0.000842747 0)
(2.00248 -0.00140385 -2.60808e-22)
(2.00247 -0.00196435 0)
(2.00245 -0.00252351 0)
(2.00242 -0.00308044 1.65136e-24)
(2.00238 -0.00363403 0)
(2.00234 -0.00418268 -1.36193e-22)
(2.00227 -0.00472438 -1.379e-22)
(2.0022 -0.00525624 1.37858e-22)
(2.00211 -0.00577523 -5.67531e-22)
(2.002 -0.00627761 5.67413e-22)
(2.00186 -0.00675831 0)
(2.0017 -0.00721035 -3.54944e-21)
(2.00152 -0.0076295 -5.77991e-22)
(2.00131 -0.00800858 6.54717e-22)
(2.00107 -0.00834105 -3.73485e-21)
(2.0008 -0.00861797 1.28434e-21)
(2.00051 -0.00883103 -6.44931e-22)
(2.00018 -0.00897085 0)
(1.99984 -0.00903123 -6.78405e-22)
(1.99948 -0.00900695 0)
(1.99912 -0.00889124 -3.54424e-22)
(1.99874 -0.00868088 3.54523e-22)
(1.99838 -0.00837447 -3.65617e-22)
(1.99803 -0.00797339 1.80526e-22)
(1.99771 -0.0074819 0)
(1.99742 -0.00690723 -1.87171e-22)
(1.99718 -0.00625929 5.70992e-22)
(1.99699 -0.00555032 1.92173e-22)
(1.99686 -0.00479562 -3.88749e-22)
(1.99678 -0.00401163 -1.93087e-22)
(1.99677 -0.00321448 3.83431e-22)
(1.99682 -0.0024207 0)
(1.99692 -0.00164587 1.89346e-22)
(1.99707 -0.000904135 -3.39509e-24)
(1.99727 -0.000207702 -3.99873e-24)
(1.9975 0.000433319 -3.70915e-22)
(1.99776 0.00101126 3.6146e-22)
(1.99804 0.00152067 -5.41276e-22)
(1.99833 0.00195857 1.77082e-22)
(1.99863 0.00232358 0)
(1.99892 0.0026161 1.70891e-22)
(1.99921 0.00283796 -1.68184e-22)
(1.99949 0.00299209 0)
(1.99975 0.00308219 0)
(2 0.0031125 3.2089e-22)
(2.00023 0.00308763 -5.81463e-24)
(2.00044 0.00301262 -1.77766e-23)
(2.00063 0.00289268 1.22543e-21)
(2.0008 0.00273187 3.03685e-22)
(2.00095 0.00253496 1.48819e-22)
(2.00108 0.00230665 1.4718e-22)
(2.0012 0.00205127 -1.32774e-24)
(2.00129 0.00177302 -1.47368e-22)
(2.00137 0.00147584 0)
(2.00144 0.00116336 0)
(2.00148 0.000839154 -2.85552e-22)
(2.00151 0.000506802 0)
(2.00153 0.000169346 0)
(2.00309 -0.000314129 0)
(2.00309 -0.000942164 0)
(2.00308 -0.00156996 5.96978e-25)
(2.00306 -0.00219788 1.28863e-22)
(2.00304 -0.00282535 0)
(2.00301 -0.00345172 1.31859e-22)
(2.00297 -0.004076 1.32948e-22)
(2.00292 -0.00469669 1.58118e-24)
(2.00285 -0.00531178 1.64892e-24)
(2.00276 -0.00591835 -1.38212e-22)
(2.00266 -0.0065129 1.38177e-22)
(2.00252 -0.00709138 1.40751e-22)
(2.00237 -0.00764891 -2.86631e-22)
(2.00218 -0.00817671 -2.3371e-21)
(2.00195 -0.00866985 -6.08946e-22)
(2.0017 -0.00912046 2.43673e-21)
(2.0014 -0.0095202 1.8807e-21)
(2.00107 -0.00985803 -1.27463e-21)
(2.0007 -0.0101245 1.30198e-21)
(2.0003 -0.0103077 2.00277e-21)
(1.99987 -0.0103993 3.34822e-22)
(1.99942 -0.010392 -4.5413e-24)
(1.99895 -0.0102774 -3.57065e-22)
(1.99847 -0.0100505 7.20724e-22)
(1.998 -0.0097087 -3.63682e-22)
(1.99756 -0.00925291 1.85157e-22)
(1.99714 -0.00868766 0)
(1.99677 -0.00802138 1.92517e-22)
(1.99645 -0.00726587 1.99345e-22)
(1.9962 -0.00643596 -1.9126e-22)
(1.99602 -0.00555065 1.91843e-22)
(1.99593 -0.00463016 1.93313e-22)
(1.99591 -0.0036944 1.91907e-22)
(1.99597 -0.00276376 -3.88284e-22)
(1.9961 -0.00185718 0)
(1.9963 -0.00099183 -3.79275e-22)
(1.99655 -0.000182207 4.5622e-24)
(1.99685 0.0005598 3.74903e-22)
(1.99718 0.00122561 -3.6421e-22)
(1.99753 0.00180921 4.59782e-24)
(1.9979 0.00230773 2.93885e-24)
(1.99828 0.00272025 -5.2048e-22)
(1.99865 0.00304789 3.45664e-22)
(1.99901 0.00329341 -1.68179e-22)
(1.99936 0.00346077 -1.65021e-22)
(1.99969 0.00355473 -6.43556e-22)
(2 0.00358067 1.9088e-21)
(2.00028 0.00354418 4.54448e-24)
(2.00054 0.00345135 2.48887e-21)
(2.00078 0.00330827 9.07827e-22)
(2.00099 0.00311937 -1.53053e-22)
(2.00118 0.00289054 -2.97831e-22)
(2.00134 0.00262707 -1.45647e-22)
(2.00148 0.00233384 1.45656e-22)
(2.0016 0.00201557 -1.44419e-22)
(2.0017 0.00167653 -1.42133e-22)
(2.00178 0.00132083 1.42151e-22)
(2.00183 0.000952349 1.07249e-24)
(2.00187 0.000575009 1.40895e-22)
(2.00189 0.00019212 0)
(2.00375 -0.000347359 0)
(2.00375 -0.00104208 0)
(2.00374 -0.00173708 0)
(2.00372 -0.00243312 -1.27535e-22)
(2.0037 -0.00312992 1.27491e-22)
(2.00367 -0.00382718 -1.296e-22)
(2.00363 -0.0045241 1.29557e-22)
(2.00357 -0.00521936 0)
(2.0035 -0.00591103 0)
(2.0034 -0.00659629 1.3642e-22)
(2.00328 -0.00727144 -2.75079e-22)
(2.00313 -0.00793169 -1.99191e-24)
(2.00295 -0.00857251 5.78837e-22)
(2.00273 -0.00918452 1.76007e-21)
(2.00247 -0.00976003 1.19979e-21)
(2.00216 -0.0102914 -1.20158e-21)
(2.00181 -0.0107681 -1.24747e-21)
(2.00141 -0.0111772 7.86608e-22)
(2.00096 -0.0115075 -6.50083e-22)
(2.00046 -0.0117442 4.2471e-24)
(1.99993 -0.011876 -1.37805e-21)
(1.99936 -0.011893 2.77832e-21)
(1.99877 -0.0117847 -3.5256e-22)
(1.99818 -0.0115439 0)
(1.99758 -0.011166 0)
(1.99701 -0.0106511 0)
(1.99648 -0.010004 0)
(1.996 -0.00923422 -1.92476e-22)
(1.9956 -0.00835608 2.0373e-22)
(1.99527 -0.00738753 2.64784e-24)
(1.99505 -0.0063521 0)
(1.99493 -0.00527478 1.95795e-22)
(1.9949 -0.00418032 -2.00161e-22)
(1.99498 -0.00309378 1.9885e-22)
(1.99515 -0.00203828 3.88903e-22)
(1.9954 -0.00103452 -5.84105e-22)
(1.99572 -9.96687e-05 -3.79425e-22)
(1.99609 0.000752516 1.89982e-22)
(1.99651 0.00151251 0)
(1.99696 0.0021741 1.81266e-22)
(1.99742 0.00273471 -9.5193e-25)
(1.99789 0.00319423 -5.7794e-25)
(1.99835 0.00355495 -1.71648e-22)
(1.9988 0.00382087 -3.32942e-22)
(1.99923 0.00399732 4.9791e-22)
(1.99963 0.00409041 -1.28127e-21)
(2.00001 0.00410697 1.28073e-21)
(2.00036 0.00405382 -2.50064e-21)
(2.00068 0.00393794 2.74317e-21)
(2.00096 0.00376635 -9.09454e-22)
(2.00122 0.00354434 0)
(2.00144 0.00327881 1.45585e-22)
(2.00164 0.00297562 -1.45591e-22)
(2.00181 0.00264025 0)
(2.00195 0.00227784 0)
(2.00207 0.00189305 0)
(2.00216 0.00149045 0)
(2.00223 0.00107411 0)
(2.00227 0.000648324 0)
(2.00229 0.000216598 0)
(2.00448 -0.000380485 0)
(2.00448 -0.0011418 0)
(2.00447 -0.00190403 0)
(2.00445 -0.00266848 0)
(2.00443 -0.0034352 0)
(2.0044 -0.00420441 1.27366e-22)
(2.00436 -0.00497556 -2.56071e-22)
(2.0043 -0.00574768 1.28718e-22)
(2.00423 -0.00651904 -1.3227e-22)
(2.00412 -0.00728693 -2.16834e-24)
(2.00399 -0.00804766 1.34356e-22)
(2.00383 -0.00879594 0)
(2.00362 -0.00952694 -2.85947e-22)
(2.00337 -0.0102316 -8.80099e-22)
(2.00306 -0.0108995 5.88361e-21)
(2.00271 -0.0115223 -2.38203e-21)
(2.00229 -0.0120875 1.23401e-21)
(2.00181 -0.0125803 -5.58971e-25)
(2.00127 -0.0129871 8.11696e-22)
(2.00068 -0.0132902 -1.3296e-21)
(2.00002 -0.0134735 -2.73588e-21)
(1.99933 -0.0135239 4.51668e-24)
(1.9986 -0.0134292 0)
(1.99785 -0.0131782 -3.71556e-22)
(1.99711 -0.012764 -7.47207e-24)
(1.99639 -0.0121853 3.79488e-22)
(1.99572 -0.0114468 0)
(1.99512 -0.0105593 0)
(1.9946 -0.00954006 -1.95164e-22)
(1.9942 -0.00841096 -3.99383e-22)
(1.99391 -0.00720123 4.04438e-22)
(1.99375 -0.00594212 -2.0446e-22)
(1.99373 -0.00466439 0)
(1.99383 -0.00339891 -5.98668e-22)
(1.99404 -0.00217399 1.98929e-22)
(1.99436 -0.00101456 3.87238e-22)
(1.99476 5.91671e-05 -3.90689e-22)
(1.99524 0.00103152 1.89564e-22)
(1.99576 0.00189208 1.82452e-22)
(1.99631 0.00263482 -5.54392e-22)
(1.99688 0.00325802 -9.94879e-25)
(1.99746 0.00376276 -5.64403e-25)
(1.99802 0.00415301 1.71625e-22)
(1.99857 0.00443451 1.97184e-25)
(1.99909 0.00461435 0)
(1.99958 0.0047003 9.30134e-24)
(2.00004 0.00470097 1.27298e-21)
(2.00045 0.00462477 -2.46159e-21)
(2.00083 0.00447929 1.2668e-22)
(2.00118 0.00427292 -1.50442e-22)
(2.00148 0.00401193 0)
(2.00175 0.00370409 1.43701e-22)
(2.00198 0.0033559 -1.43707e-22)
(2.00218 0.00297342 0)
(2.00235 0.00256219 0)
(2.00249 0.00212724 0)
(2.00259 0.00167354 1.37277e-22)
(2.00267 0.00120538 -1.37296e-22)
(2.00273 0.000727314 0)
(2.00275 0.000242971 0)
(2.00528 -0.00041321 0)
(2.00527 -0.00124037 0)
(2.00527 -0.00206928 0)
(2.00526 -0.00290184 0)
(2.00524 -0.00373856 0)
(2.00521 -0.00458028 -1.24888e-22)
(2.00517 -0.00542685 2.51141e-22)
(2.00512 -0.00627775 1.72682e-24)
(2.00504 -0.00713162 1.98179e-24)
(2.00493 -0.00798592 1.34362e-22)
(2.00479 -0.00883727 -3.98721e-22)
(2.00461 -0.00968007 -2.79072e-24)
(2.00439 -0.010509 1.37277e-22)
(2.0041 -0.0113151 -2.89107e-22)
(2.00376 -0.0120871 -1.74135e-21)
(2.00335 -0.0128138 -1.78216e-21)
(2.00287 -0.0134806 -2.10252e-23)
(2.00231 -0.0140717 1.38697e-22)
(2.00167 -0.01457 4.76586e-22)
(2.00095 -0.0149545 -2.00733e-21)
(2.00017 -0.015204 -2.07735e-21)
(1.99932 -0.0153007 -7.02406e-22)
(1.99843 -0.0152295 0)
(1.99751 -0.0149741 -3.7633e-22)
(1.99659 -0.0145245 -8.5302e-24)
(1.99569 -0.0138772 3.85413e-22)
(1.99485 -0.0130362 2.0072e-22)
(1.99409 -0.0120138 0)
(1.99345 -0.0108307 4.13694e-22)
(1.99294 -0.00951393 -6.23117e-22)
(1.99258 -0.00810002 2.06608e-22)
(1.99239 -0.00662822 -4.13779e-22)
(1.99236 -0.00513689 6.16556e-22)
(1.99249 -0.00366453 -3.81317e-24)
(1.99276 -0.00224571 -2.07345e-22)
(1.99317 -0.000910491 1.98602e-22)
(1.99367 0.000317494 0)
(1.99426 0.00142054 0)
(1.99491 0.00238785 -1.86014e-22)
(1.9956 0.00321399 3.72351e-22)
(1.9963 0.00389872 1.79971e-22)
(1.997 0.0044451 -5.20107e-25)
(1.99768 0.0048594 -3.43678e-22)
(1.99834 0.00514967 -4.95148e-22)
(1.99896 0.00532533 1.9691e-21)
(1.99955 0.00539635 -1.28324e-21)
(2.00009 0.00537314 6.19042e-22)
(2.00058 0.00526557 1.8422e-21)
(2.00103 0.00508253 -2.11667e-21)
(2.00143 0.00483405 -2.9743e-22)
(2.00179 0.00452711 0)
(2.0021 0.0041705 -1.41574e-22)
(2.00237 0.00377127 1.41588e-22)
(2.0026 0.00333604 0)
(2.0028 0.00287076 1.36782e-22)
(2.00296 0.00238078 -1.36796e-22)
(2.00308 0.00187141 0)
(2.00317 0.00134704 0)
(2.00324 0.000812458 0)
(2.00326 0.000271412 0)
(2.00614 -0.000445182 0)
(2.00613 -0.00133678 0)
(2.00613 -0.00223113 0)
(2.00612 -0.00313081 0)
(2.00611 -0.00403695 0)
(2.00609 -0.0049511 0)
(2.00606 -0.00587361 -1.23608e-22)
(2.00601 -0.00680466 -1.76375e-24)
(2.00593 -0.00774336 -1.29334e-22)
(2.00583 -0.00868765 1.24932e-22)
(2.00569 -0.00963448 -1.34717e-22)
(2.0055 -0.0105783 2.64118e-22)
(2.00526 -0.0115133 -2.7628e-22)
(2.00495 -0.0124308 -7.07924e-24)
(2.00457 -0.0133185 2.57679e-21)
(2.0041 -0.0141629 -5.98258e-22)
(2.00355 -0.0149479 -1.2313e-21)
(2.0029 -0.0156549 -1.7691e-22)
(2.00216 -0.0162632 -2.01114e-23)
(2.00131 -0.016748 1.9863e-21)
(2.00038 -0.017082 -1.76172e-23)
(1.99936 -0.017242 -3.59815e-22)
(1.99827 -0.0172077 5.44009e-22)
(1.99715 -0.0169568 1.89636e-22)
(1.99601 -0.0164746 0)
(1.9949 -0.0157541 2.00563e-22)
(1.99385 -0.014798 -2.00646e-22)
(1.99291 -0.01362 4.15902e-22)
(1.9921 -0.0122452 -6.19426e-22)
(1.99146 -0.0107069 6.32791e-22)
(1.99102 -0.00905132 -2.12207e-22)
(1.99079 -0.00732819 4.24836e-22)
(1.99076 -0.00558592 -2.15794e-22)
(1.99093 -0.00387258 6.31332e-22)
(1.99129 -0.00223064 -6.08895e-24)
(1.9918 -0.00069625 -6.19312e-22)
(1.99243 0.000703132 -3.96977e-22)
(1.99317 0.00194783 3.96753e-22)
(1.99397 0.00302722 0)
(1.99481 0.00393744 1.85672e-22)
(1.99566 0.00468049 -1.81976e-22)
(1.9965 0.00526244 -1.77216e-22)
(1.99732 0.00569274 1.40458e-25)
(1.99811 0.00598247 0)
(1.99885 0.00614427 1.29121e-21)
(1.99954 0.00619049 -2.5297e-21)
(2.00017 0.00613338 -9.26636e-22)
(2.00075 0.00598436 -3.06367e-22)
(2.00127 0.00575457 1.46715e-22)
(2.00173 0.00545539 -1.01099e-21)
(2.00215 0.00509446 4.29279e-22)
(2.00251 0.00468175 -1.41414e-22)
(2.00282 0.0042247 0)
(2.00308 0.00373048 0)
(2.0033 0.0032054 0)
(2.00349 0.00265506 -1.33055e-22)
(2.00363 0.00208503 8.91774e-25)
(2.00373 0.00149979 1.32221e-22)
(2.0038 0.000904185 0)
(2.00384 0.000302061 0)
(2.00706 -0.000475948 -1.15126e-22)
(2.00706 -0.00142974 1.15455e-22)
(2.00706 -0.0023875 0)
(2.00706 -0.00335245 -1.17015e-22)
(2.00706 -0.00432658 1.16958e-22)
(2.00705 -0.00531224 0)
(2.00703 -0.00631055 1.20649e-22)
(2.00699 -0.00732244 1.78973e-24)
(2.00692 -0.00834771 -2.46711e-22)
(2.00682 -0.009385 -1.29073e-22)
(2.00668 -0.0104319 1.23958e-22)
(2.00649 -0.0114832 1.29265e-22)
(2.00624 -0.0125329 0)
(2.00591 -0.0135723 0)
(2.0055 -0.0145888 -2.91494e-22)
(2.00498 -0.0155666 -8.77358e-22)
(2.00436 -0.0164884 1.19406e-21)
(2.00362 -0.0173322 -9.4107e-22)
(2.00276 -0.0180731 -2.2107e-23)
(2.00178 -0.0186819 1.32755e-21)
(2.00067 -0.0191242 4.81587e-21)
(1.99945 -0.0193696 -7.25087e-22)
(1.99815 -0.0193907 5.38262e-22)
(1.99678 -0.0191576 1.86079e-22)
(1.99539 -0.0186486 0)
(1.99401 -0.0178513 -2.00444e-22)
(1.99271 -0.0167659 0)
(1.99153 -0.0154073 2.13767e-22)
(1.99053 -0.013806 2.70591e-24)
(1.98974 -0.0120036 -8.73806e-22)
(1.9892 -0.0100591 1.33093e-21)
(1.98892 -0.00803612 -1.41395e-24)
(1.9889 -0.00599644 -4.38251e-22)
(1.98913 -0.0040003 6.23483e-24)
(1.98959 -0.00210023 -2.06196e-22)
(1.99023 -0.000339542 6.29713e-22)
(1.99103 0.00124986 0)
(1.99194 0.00264698 0)
(1.99293 0.00384237 -3.82052e-22)
(1.99395 0.00483475 1.09467e-23)
(1.99498 0.00562983 7.35211e-22)
(1.99599 0.00623805 -5.84844e-25)
(1.99696 0.00667307 5.35372e-25)
(1.99789 0.00694986 1.32833e-21)
(1.99876 0.00708509 -7.7453e-21)
(1.99956 0.00709415 3.14941e-21)
(2.0003 0.00699057 6.11491e-22)
(2.00096 0.00678884 0)
(2.00156 0.00650189 0)
(2.00209 0.00614195 5.76127e-22)
(2.00256 0.00571803 1.38851e-22)
(2.00297 0.00524095 -1.38847e-22)
(2.00332 0.00471862 0)
(2.00362 0.00415862 -1.3276e-22)
(2.00387 0.00356752 1.32775e-22)
(2.00408 0.00295118 0)
(2.00424 0.0023152 0)
(2.00436 0.00166411 1.28638e-22)
(2.00443 0.00100277 -1.28674e-22)
(2.00447 0.000335014 0)
(2.00804 -0.000505076 0)
(2.00804 -0.00151789 0)
(2.00805 -0.00253598 1.13067e-22)
(2.00806 -0.00356346 -1.13009e-22)
(2.00807 -0.00460323 0)
(2.00808 -0.00565851 0)
(2.00807 -0.00673149 -1.17408e-22)
(2.00805 -0.00782397 -1.80112e-24)
(2.008 -0.00893674 2.40261e-22)
(2.00791 -0.0100693 -1.21114e-22)
(2.00779 -0.0112202 -2.52419e-22)
(2.0076 -0.0123851 1.19714e-22)
(2.00735 -0.0135581 2.58401e-22)