/*--------------------------------*- C++ -*----------------------------------*\
  =========                 |
  \\      /  F ield         | OpenFOAM: The Open Source CFD Toolbox
   \\    /   O peration     | Website:  https://openfoam.org
    \\  /    A nd           | Version:  12
     \\/     M anipulation  |
\*---------------------------------------------------------------------------*/
FoamFile
{
    format      ascii;
    class       volScalarField;
    location    "20";
    object      k;
}
// * * * * * * * * * * * * * * * * * * * * * * * * * * * * * * * * * * * * * //

dimensions      [0 2 -2 0 0 0 0];

internalField   nonuniform List<scalar> 
16227
(
0.00914646
0.00914648
0.00914647
0.00914651
0.0091465
0.00914654
0.00914653
0.00914651
0.00914651
0.00914653
0.00914657
0.00914659
0.00914665
0.00914665
0.00914665
0.00914665
0.00914665
0.00914665
0.00914665
0.00914665
0.00914665
0.00914665
0.00914665
0.00914665
0.00914665
0.00914665
0.00914665
0.00914666
0.00914667
0.00914665
0.00914666
0.00914665
0.00914665
0.00914665
0.00914666
0.00914665
0.00914665
0.00914665
0.00914665
0.00914665
0.00914665
0.00914665
0.00914665
0.00914665
0.00914665
0.00914665
0.00914665
0.00914663
0.00914662
0.00914662
0.00914662
0.00914661
0.00914654
0.00914654
0.0091465
0.00914649
0.00914651
0.00914649
0.00914647
0.00914646
0.00848114
0.00848116
0.00848115
0.00848119
0.00848119
0.00848123
0.00848122
0.00848119
0.0084812
0.00848121
0.00848127
0.00848129
0.00848144
0.00848149
0.00848151
0.00848151
0.00848151
0.00848151
0.00848152
0.00848152
0.00848154
0.00848156
0.00848156
0.00848157
0.00848157
0.00848158
0.00848158
0.00848158
0.00848157
0.00848153
0.00848159
0.00848161
0.00848162
0.00848163
0.00848163
0.00848163
0.00848162
0.00848163
0.00848163
0.00848164
0.00848164
0.00848165
0.00848165
0.00848164
0.00848164
0.00848163
0.00848163
0.00848164
0.00848164
0.00848163
0.0084816
0.00848155
0.00848143
0.00848142
0.00848138
0.00848136
0.0084814
0.00848132
0.00848133
0.00848131
0.00790052
0.00790053
0.00790054
0.00790056
0.00790055
0.00790064
0.00790059
0.00790058
0.00790059
0.0079006
0.00790065
0.00790066
0.00790092
0.00790098
0.007901
0.00790101
0.00790102
0.00790102
0.00790105
0.007901
0.00790105
0.00790107
0.00790108
0.0079011
0.00790111
0.00790113
0.00790114
0.00790117
0.00790117
0.00790112
0.0079012
0.00790123
0.00790126
0.00790128
0.0079013
0.00790132
0.00790134
0.00790135
0.00790136
0.00790138
0.00790139
0.00790141
0.00790141
0.00790141
0.00790142
0.00790143
0.00790143
0.00790144
0.00790143
0.00790141
0.00790138
0.00790119
0.00790111
0.0079011
0.00790108
0.00790108
0.00790111
0.00790102
0.00790103
0.00790101
0.00738983
0.00738984
0.00738985
0.00738986
0.00738986
0.00738993
0.00738993
0.0073899
0.0073899
0.0073899
0.00738995
0.00739001
0.00739028
0.00739035
0.00739038
0.0073904
0.00739041
0.00739044
0.00739039
0.00739027
0.0073904
0.00739046
0.00739048
0.00739051
0.00739055
0.00739057
0.0073906
0.00739062
0.00739064
0.00739058
0.00739069
0.00739075
0.00739078
0.00739082
0.00739086
0.0073909
0.00739095
0.00739097
0.00739101
0.00739104
0.00739107
0.00739109
0.0073911
0.00739113
0.00739114
0.00739115
0.00739117
0.00739117
0.00739119
0.00739117
0.00739105
0.00739086
0.00739077
0.00739079
0.0073908
0.00739082
0.00739079
0.00739072
0.00739072
0.0073907
0.00693749
0.0069375
0.00693751
0.00693753
0.00693753
0.00693759
0.00693761
0.00693755
0.00693756
0.00693756
0.0069376
0.00693766
0.00693792
0.00693805
0.00693808
0.00693809
0.00693811
0.0069381
0.0069379
0.00693785
0.00693807
0.00693817
0.0069382
0.00693823
0.00693826
0.00693829
0.00693833
0.00693837
0.00693839
0.00693835
0.00693849
0.00693857
0.00693863
0.00693868
0.00693874
0.0069388
0.00693886
0.00693892
0.00693897
0.00693901
0.00693906
0.00693911
0.00693913
0.00693916
0.00693919
0.00693922
0.00693924
0.00693925
0.00693927
0.00693919
0.00693896
0.00693886
0.00693879
0.00693883
0.00693885
0.0069389
0.00693884
0.00693877
0.00693877
0.00693875
0.0065343
0.00653432
0.00653431
0.00653433
0.00653433
0.00653437
0.00653441
0.00653436
0.00653434
0.00653434
0.00653435
0.00653439
0.00653451
0.00653481
0.00653488
0.00653491
0.00653493
0.00653484
0.00653463
0.00653462
0.00653487
0.00653497
0.006535
0.00653503
0.00653508
0.00653513
0.00653517
0.00653522
0.00653525
0.00653522
0.00653538
0.00653548
0.00653556
0.00653565
0.00653573
0.00653581
0.0065359
0.00653597
0.00653604
0.00653611
0.00653617
0.00653622
0.00653627
0.00653633
0.00653636
0.00653639
0.00653642
0.00653645
0.00653646
0.00653633
0.0065361
0.006536
0.00653597
0.00653602
0.00653608
0.00653607
0.00653602
0.00653596
0.00653596
0.00653594
0.00617285
0.00617287
0.00617286
0.00617287
0.00617287
0.00617291
0.00617295
0.00617293
0.00617289
0.00617288
0.00617287
0.00617288
0.00617299
0.00617327
0.00617342
0.00617345
0.00617344
0.00617318
0.00617308
0.00617312
0.00617339
0.00617348
0.00617352
0.00617356
0.0061736
0.00617365
0.00617371
0.00617378
0.00617383
0.0061738
0.00617398
0.00617411
0.0061742
0.00617431
0.00617442
0.00617453
0.00617463
0.00617474
0.00617483
0.00617493
0.00617501
0.00617508
0.00617515
0.0061752
0.00617526
0.0061753
0.00617534
0.00617537
0.00617532
0.00617507
0.00617495
0.00617488
0.00617489
0.00617496
0.00617498
0.00617498
0.00617493
0.00617488
0.00617489
0.00617486
0.00584714
0.00584715
0.00584714
0.00584716
0.00584715
0.00584718
0.00584722
0.00584721
0.00584717
0.00584714
0.00584712
0.00584709
0.00584715
0.00584729
0.00584761
0.00584771
0.00584767
0.00584737
0.0058473
0.00584734
0.00584762
0.00584772
0.00584775
0.00584779
0.00584783
0.00584789
0.00584796
0.00584804
0.00584809
0.00584809
0.00584829
0.00584844
0.00584857
0.0058487
0.00584883
0.00584897
0.0058491
0.00584923
0.00584935
0.00584946
0.00584957
0.00584965
0.00584974
0.00584982
0.00584989
0.00584993
0.00584998
0.00585
0.00584989
0.00584965
0.00584954
0.00584951
0.00584957
0.00584961
0.00584961
0.00584961
0.00584957
0.00584953
0.00584954
0.00584951
0.00555224
0.00555225
0.00555225
0.00555225
0.00555225
0.00555227
0.0055523
0.00555229
0.00555228
0.00555223
0.00555219
0.00555214
0.00555217
0.00555228
0.00555265
0.00555277
0.00555265
0.00555237
0.00555232
0.00555236
0.00555264
0.00555273
0.00555276
0.0055528
0.00555285
0.00555292
0.00555299
0.00555308
0.00555315
0.00555316
0.00555338
0.00555355
0.00555371
0.00555387
0.00555403
0.0055542
0.00555436
0.00555452
0.00555466
0.00555479
0.00555492
0.00555505
0.00555514
0.00555522
0.0055553
0.00555538
0.00555542
0.00555537
0.00555513
0.00555501
0.00555495
0.00555499
0.00555501
0.00555505
0.00555506
0.00555506
0.00555503
0.00555498
0.00555498
0.00555498
0.00528409
0.00528409
0.00528408
0.00528409
0.00528408
0.0052841
0.00528413
0.00528411
0.00528409
0.00528407
0.00528402
0.00528395
0.00528397
0.00528409
0.00528439
0.00528451
0.00528424
0.00528409
0.00528407
0.00528411
0.00528438
0.00528447
0.0052845
0.00528454
0.00528459
0.00528466
0.00528474
0.00528483
0.00528492
0.00528495
0.0052852
0.00528539
0.00528557
0.00528576
0.00528596
0.00528615
0.00528634
0.00528653
0.00528671
0.00528687
0.00528701
0.00528715
0.00528728
0.00528738
0.00528747
0.00528755
0.00528759
0.00528751
0.00528725
0.00528716
0.00528715
0.00528717
0.00528719
0.00528723
0.00528724
0.00528724
0.00528721
0.00528717
0.00528717
0.00528716
0.00503928
0.00503928
0.00503928
0.00503927
0.00503927
0.00503928
0.0050393
0.00503927
0.00503925
0.00503923
0.0050392
0.0050391
0.00503907
0.00503914
0.00503928
0.00503953
0.00503929
0.00503918
0.00503916
0.00503919
0.0050394
0.00503953
0.00503957
0.0050396
0.00503965
0.00503971
0.0050398
0.00503991
0.00504001
0.00504005
0.00504032
0.00504055
0.00504076
0.00504098
0.00504121
0.00504144
0.00504167
0.00504188
0.00504209
0.00504229
0.00504245
0.00504261
0.00504275
0.00504287
0.00504297
0.00504304
0.00504302
0.0050429
0.00504274
0.00504267
0.00504268
0.0050427
0.00504272
0.00504276
0.00504276
0.00504277
0.00504274
0.00504269
0.0050427
0.00504269
0.00481496
0.00481497
0.00481496
0.00481496
0.00481495
0.00481496
0.00481496
0.00481495
0.00481492
0.00481488
0.00481484
0.00481478
0.00481471
0.00481472
0.00481482
0.00481503
0.00481487
0.00481477
0.00481472
0.00481473
0.00481479
0.00481502
0.00481509
0.00481512
0.00481517
0.00481524
0.00481533
0.00481544
0.00481556
0.00481562
0.00481592
0.00481617
0.00481641
0.00481667
0.00481694
0.0048172
0.00481746
0.00481772
0.00481795
0.00481818
0.00481838
0.00481856
0.00481872
0.00481886
0.00481896
0.004819
0.00481888
0.00481883
0.00481875
0.00481869
0.00481869
0.00481872
0.00481874
0.00481877
0.00481878
0.00481878
0.00481875
0.00481871
0.00481871
0.00481871
0.00460873
0.00460874
0.00460873
0.00460873
0.00460872
0.00460872
0.00460872
0.0046087
0.00460867
0.00460863
0.00460859
0.00460851
0.00460845
0.00460838
0.00460839
0.00460845
0.00460847
0.00460843
0.00460837
0.00460835
0.00460836
0.00460862
0.00460869
0.00460871
0.00460875
0.00460882
0.00460891
0.00460903
0.00460916
0.00460924
0.00460957
0.00460985
0.00461013
0.00461043
0.00461073
0.00461104
0.00461134
0.00461163
0.00461191
0.00461216
0.00461239
0.0046126
0.00461277
0.00461293
0.00461302
0.00461304
0.00461293
0.00461292
0.00461284
0.00461279
0.00461279
0.00461282
0.00461284
0.00461286
0.00461287
0.00461287
0.00461284
0.0046128
0.0046128
0.0046128
0.00441854
0.00441856
0.00441854
0.00441853
0.00441852
0.00441852
0.00441851
0.00441849
0.00441845
0.00441841
0.00441836
0.00441828
0.00441821
0.00441814
0.00441808
0.0044181
0.00441816
0.00441812
0.00441805
0.00441802
0.004418
0.00441825
0.0044183
0.00441831
0.00441834
0.0044184
0.00441849
0.00441862
0.00441876
0.00441886
0.00441921
0.00441953
0.00441985
0.00442019
0.00442054
0.00442089
0.00442125
0.00442158
0.00442189
0.00442219
0.00442244
0.00442267
0.00442286
0.00442301
0.00442305
0.00442303
0.00442303
0.00442302
0.00442296
0.00442292
0.00442293
0.00442294
0.00442296
0.00442298
0.00442299
0.00442298
0.00442295
0.00442292
0.00442292
0.00442291
0.00424263
0.00424264
0.00424263
0.00424262
0.0042426
0.0042426
0.00424259
0.00424256
0.00424252
0.00424247
0.00424241
0.00424233
0.00424225
0.00424217
0.00424211
0.00424211
0.00424215
0.0042421
0.004242
0.00424195
0.00424191
0.00424213
0.00424217
0.00424216
0.00424217
0.00424223
0.00424232
0.00424245
0.0042426
0.00424272
0.0042431
0.00424345
0.00424382
0.0042442
0.00424461
0.00424501
0.00424541
0.00424579
0.00424615
0.00424648
0.00424676
0.00424702
0.00424722
0.00424734
0.0042473
0.00424735
0.00424738
0.00424739
0.00424735
0.00424732
0.00424734
0.00424735
0.00424736
0.00424737
0.00424737
0.00424736
0.00424733
0.00424731
0.0042473
0.00424729
0.00407949
0.00407949
0.00407948
0.00407947
0.00407945
0.00407945
0.00407943
0.0040794
0.00407936
0.0040793
0.00407923
0.00407914
0.00407906
0.00407897
0.0040789
0.00407888
0.0040789
0.00407883
0.00407871
0.00407863
0.00407858
0.0040787
0.00407877
0.00407874
0.00407874
0.00407878
0.00407886
0.004079
0.00407916
0.0040793
0.00407971
0.0040801
0.00408051
0.00408095
0.00408141
0.00408188
0.00408233
0.00408277
0.00408317
0.00408353
0.00408385
0.00408413
0.00408435
0.00408444
0.00408442
0.00408447
0.00408452
0.00408449
0.00408447
0.00408447
0.00408449
0.0040845
0.00408451
0.00408452
0.00408451
0.0040845
0.00408446
0.00408444
0.00408443
0.00408442
0.0039278
0.0039278
0.0039278
0.00392778
0.00392776
0.00392775
0.00392774
0.00392769
0.00392765
0.00392759
0.00392752
0.00392742
0.00392733
0.00392723
0.00392714
0.00392711
0.00392712
0.00392701
0.00392688
0.00392674
0.00392665
0.00392662
0.00392676
0.00392676
0.00392674
0.00392675
0.00392682
0.00392696
0.00392713
0.00392729
0.00392773
0.00392817
0.00392863
0.00392913
0.00392966
0.00393019
0.00393071
0.00393119
0.00393164
0.00393205
0.00393241
0.00393269
0.00393285
0.00393292
0.00393299
0.00393307
0.00393313
0.0039331
0.00393307
0.00393309
0.0039331
0.00393311
0.0039331
0.00393311
0.0039331
0.00393308
0.00393304
0.00393301
0.00393301
0.003933
0.00378643
0.00378644
0.00378643
0.00378641
0.00378639
0.00378638
0.00378636
0.00378632
0.00378627
0.00378621
0.00378613
0.00378603
0.00378592
0.00378582
0.00378571
0.00378566
0.00378564
0.00378553
0.00378536
0.00378519
0.00378505
0.00378494
0.00378508
0.00378507
0.00378502
0.00378501
0.00378506
0.00378518
0.00378536
0.00378555
0.00378602
0.0037865
0.00378703
0.0037876
0.0037882
0.0037888
0.00378939
0.00378994
0.00379045
0.0037909
0.00379128
0.00379155
0.00379163
0.00379177
0.00379189
0.003792
0.00379204
0.00379202
0.00379201
0.00379201
0.00379202
0.00379202
0.003792
0.003792
0.00379199
0.00379196
0.00379192
0.00379189
0.00379188
0.00379188
0.00365439
0.0036544
0.00365439
0.00365437
0.00365435
0.00365434
0.00365432
0.00365427
0.00365422
0.00365415
0.00365407
0.00365397
0.00365385
0.00365373
0.00365361
0.00365354
0.00365349
0.00365335
0.00365317
0.00365296
0.00365278
0.00365264
0.00365268
0.00365266
0.00365259
0.00365255
0.00365258
0.00365268
0.00365286
0.00365307
0.00365357
0.00365412
0.00365471
0.00365537
0.00365605
0.00365675
0.00365741
0.00365803
0.00365859
0.00365907
0.00365947
0.00365974
0.00365984
0.00366
0.00366015
0.00366024
0.00366025
0.00366024
0.00366025
0.00366026
0.00366026
0.00366024
0.00366022
0.00366021
0.00366018
0.00366016
0.00366011
0.00366008
0.00366006
0.00366006
0.00353081
0.00353081
0.0035308
0.00353079
0.00353076
0.00353075
0.00353073
0.00353068
0.00353063
0.00353056
0.00353048
0.00353036
0.00353025
0.00353012
0.00352998
0.00352987
0.00352979
0.00352964
0.00352943
0.00352919
0.00352894
0.00352874
0.00352861
0.00352865
0.00352857
0.0035285
0.00352849
0.00352858
0.00352876
0.00352898
0.00352953
0.00353014
0.00353081
0.00353156
0.00353235
0.00353314
0.00353389
0.00353459
0.00353518
0.00353566
0.00353605
0.00353631
0.00353652
0.00353671
0.00353687
0.00353694
0.00353694
0.00353694
0.00353695
0.00353695
0.00353693
0.00353691
0.00353688
0.00353686
0.00353682
0.00353678
0.00353674
0.0035367
0.00353668
0.00353668
0.00341491
0.00341492
0.00341491
0.00341489
0.00341487
0.00341485
0.00341483
0.00341478
0.00341473
0.00341466
0.00341457
0.00341446
0.00341433
0.00341419
0.00341403
0.00341387
0.00341375
0.00341361
0.00341338
0.00341311
0.00341282
0.00341254
0.00341232
0.00341234
0.00341222
0.00341211
0.00341206
0.00341212
0.00341228
0.00341252
0.0034131
0.00341378
0.00341456
0.00341542
0.00341632
0.00341723
0.00341809
0.00341884
0.00341947
0.00341999
0.00342034
0.00342065
0.00342092
0.00342114
0.00342127
0.0034213
0.00342131
0.00342132
0.00342133
0.00342131
0.00342129
0.00342125
0.00342121
0.00342117
0.00342113
0.00342108
0.00342103
0.00342099
0.00342097
0.00342097
0.00330602
0.00330603
0.00330602
0.00330601
0.00330598
0.00330597
0.00330594
0.0033059
0.00330584
0.00330577
0.00330568
0.00330557
0.00330544
0.00330529
0.00330512
0.00330493
0.00330478
0.00330462
0.00330437
0.00330405
0.00330371
0.00330337
0.00330308
0.003303
0.00330288
0.00330273
0.00330264
0.00330265
0.00330278
0.00330303
0.00330365
0.0033044
0.00330527
0.00330626
0.0033073
0.00330835
0.00330932
0.00331013
0.00331082
0.00331138
0.00331175
0.00331209
0.00331237
0.00331258
0.00331269
0.00331271
0.00331271
0.00331272
0.00331271
0.00331268
0.00331264
0.00331258
0.00331253
0.00331248
0.00331242
0.00331237
0.00331232
0.00331227
0.00331225
0.00331224
0.00320354
0.00320355
0.00320354
0.00320352
0.0032035
0.00320349
0.00320347
0.00320342
0.00320337
0.0032033
0.00320321
0.0032031
0.00320297
0.00320282
0.00320264
0.00320243
0.00320225
0.00320206
0.00320178
0.00320142
0.00320102
0.00320061
0.00320024
0.00320003
0.00320008
0.00319987
0.0031997
0.00319964
0.00319973
0.00319994
0.00320058
0.00320141
0.0032024
0.00320351
0.00320471
0.00320594
0.00320701
0.00320789
0.00320857
0.00320915
0.00320961
0.00320998
0.00321026
0.00321042
0.00321048
0.00321051
0.00321052
0.00321051
0.00321049
0.00321044
0.00321038
0.00321031
0.00321024
0.00321018
0.00321011
0.00321005
0.00320998
0.00320993
0.00320991
0.0032099
0.00310693
0.00310694
0.00310693
0.00310691
0.0031069
0.00310688
0.00310686
0.00310682
0.00310677
0.00310671
0.00310662
0.00310651
0.00310638
0.00310623
0.00310604
0.00310582
0.00310559
0.00310535
0.00310507
0.0031047
0.00310425
0.00310377
0.0031033
0.00310323
0.00314989
0.00314972
0.00314946
0.00314934
0.00314939
0.0031496
0.00315028
0.00315117
0.00315224
0.00315345
0.00315474
0.00315602
0.00311113
0.00311164
0.00311233
0.00311293
0.00311341
0.00311378
0.00311402
0.00311413
0.00311417
0.0031142
0.0031142
0.00311418
0.00311413
0.00311406
0.00311397
0.00311389
0.0031138
0.00311372
0.00311364
0.00311357
0.0031135
0.00311345
0.00311342
0.00311341
0.00301571
0.00301572
0.00301571
0.0030157
0.00301568
0.00301567
0.00301565
0.00301561
0.00301557
0.00301551
0.00301543
0.00301532
0.0030152
0.00301505
0.00301486
0.00301464
0.00301437
0.00301409
0.00301378
0.00301343
0.00301295
0.0030124
0.003012
0.003056
0.00305436
0.00305414
0.00305379
0.00305359
0.00305361
0.00305387
0.00305466
0.0030557
0.00305695
0.00305833
0.00305979
0.0030611
0.00306419
0.00302136
0.00302166
0.00302223
0.00302268
0.00302301
0.00302321
0.00302328
0.0030233
0.00302331
0.00302328
0.00302323
0.00302315
0.00302305
0.00302295
0.00302284
0.00302273
0.00302264
0.00302255
0.00302247
0.00302239
0.00302233
0.0030223
0.00302229
0.00292945
0.00292945
0.00292945
0.00292944
0.00292943
0.00292942
0.0029294
0.00292938
0.00292933
0.00292928
0.00292921
0.00292911
0.00292899
0.00292885
0.00292867
0.00292845
0.00292819
0.00292789
0.00292757
0.00292721
0.00292673
0.00292618
0.00292583
0.00296594
0.00296466
0.00298599
0.00298575
0.00298547
0.00298542
0.00298565
0.00298643
0.00298745
0.00298872
0.0029902
0.00299178
0.00297201
0.00297486
0.00293606
0.00293605
0.00293657
0.00293697
0.00293723
0.00293735
0.00293739
0.0029374
0.00293738
0.00293732
0.00293723
0.00293712
0.00293699
0.00293686
0.00293673
0.00293661
0.0029365
0.0029364
0.0029363
0.00293622
0.00293615
0.00293612
0.0029361
0.00284777
0.00284777
0.00284777
0.00284776
0.00284775
0.00284775
0.00284774
0.00284772
0.00284769
0.00284764
0.00284758
0.00284749
0.00284738
0.00284725
0.00284709
0.00284688
0.00284664
0.00284634
0.002846
0.00284564
0.00284523
0.00284479
0.00284456
0.00288119
0.0028806
0.0028996
0.0029001
0.00290002
0.0029
0.0029002
0.00290075
0.00290156
0.0029027
0.00290418
0.0029057
0.00288851
0.00289045
0.00285559
0.00285519
0.00285558
0.00285588
0.00285603
0.0028561
0.00285612
0.0028561
0.00285603
0.00285593
0.0028558
0.00285565
0.0028555
0.00285534
0.00285519
0.00285505
0.00285492
0.0028548
0.0028547
0.0028546
0.00285453
0.00285449
0.00285448
0.00277032
0.00277032
0.00277032
0.00277031
0.00277031
0.00277031
0.00277031
0.00277029
0.00277027
0.00277023
0.00277018
0.0027701
0.00277002
0.0027699
0.00276976
0.00276958
0.00276937
0.0027691
0.00276879
0.00276845
0.00276814
0.0027679
0.00276792
0.00280164
0.00280205
0.00281915
0.00282121
0.00282239
0.00282366
0.00282445
0.00282413
0.0028233
0.00282304
0.00282362
0.00282468
0.00280998
0.00281092
0.00277961
0.00277875
0.00277892
0.00277906
0.00277914
0.00277915
0.00277912
0.00277904
0.00277891
0.00277876
0.00277859
0.0027784
0.00277821
0.00277803
0.00277785
0.00277769
0.00277754
0.00277741
0.0027773
0.0027772
0.00277712
0.00277708
0.00277706
0.00269678
0.00269678
0.00269678
0.00269678
0.00269678
0.00269679
0.00269679
0.00269678
0.00269677
0.00269675
0.00269671
0.00269665
0.00269658
0.00269649
0.00269637
0.00269623
0.00269606
0.00269586
0.00269562
0.00269537
0.00269522
0.00269526
0.0026957
0.00272718
0.00272935
0.00274517
0.0027503
0.00275707
0.0027668
0.00277451
0.00277078
0.00276061
0.00275333
0.0027501
0.0027492
0.00273652
0.00273622
0.00270774
0.00270642
0.00270627
0.00270626
0.00270623
0.00270617
0.00270605
0.00270589
0.0027057
0.00270549
0.00270527
0.00270505
0.00270483
0.00270462
0.00270441
0.00270423
0.00270407
0.00270392
0.0027038
0.00270369
0.00270361
0.00270356
0.00270354
0.00262687
0.00262688
0.00262688
0.00262688
0.00262689
0.0026269
0.00262691
0.00262691
0.00262691
0.00262689
0.00262687
0.00262684
0.00262678
0.00262672
0.00262664
0.00262654
0.00262643
0.00262631
0.00262619
0.0026261
0.00262623
0.00262665
0.00262771
0.00265775
0.00266297
0.00267867
0.00269329
0.00272251
0.00278548
0.00286112
0.00282246
0.0027414
0.00270172
0.00268623
0.00268016
0.00266786
0.00266632
0.0026397
0.00263799
0.00263746
0.00263721
0.00263704
0.00263684
0.00263661
0.00263637
0.00263611
0.00263584
0.00263557
0.00263531
0.00263505
0.00263481
0.00263458
0.00263438
0.0026342
0.00263404
0.00263391
0.00263379
0.0026337
0.00263365
0.00263363
0.00256034
0.00256035
0.00256035
0.00256036
0.00256037
0.00256039
0.00256041
0.00256042
0.00256042
0.00256043
0.00256042
0.0025604
0.00256037
0.00256034
0.00256029
0.00256025
0.00256021
0.0025602
0.00256022
0.00256034
0.00256085
0.00256182
0.00256371
0.00259313
0.00260287
0.00262222
0.00266113
0.00278522
0.00320839
0.00383292
0.00352523
0.00288779
0.0026881
0.00263715
0.00261948
0.0026038
0.00260123
0.00257523
0.00257319
0.00257221
0.00257163
0.00257125
0.00257089
0.00257055
0.00257021
0.00256987
0.00256955
0.00256922
0.00256892
0.00256863
0.00256836
0.00256811
0.00256788
0.00256769
0.00256751
0.00256737
0.00256724
0.00256715
0.00256709
0.00256708
0.00249695
0.00249696
0.00249697
0.00249698
0.002497
0.00249702
0.00249704
0.00249706
0.00249708
0.0024971
0.00249711
0.0024971
0.0024971
0.0024971
0.0024971
0.00249711
0.00249716
0.00249726
0.00249745
0.00249782
0.00249877
0.00250042
0.0025034
0.00253297
0.0025481
0.00257773
0.00266706
0.00312889
0.050488
1.01232
0.437477
0.00631572
0.00273488
0.00261039
0.00256921
0.00254401
0.0025408
0.00251417
0.0025117
0.00251021
0.00250924
0.0025086
0.00250807
0.0025076
0.00250716
0.00250675
0.00250636
0.00250599
0.00250564
0.00250532
0.00250502
0.00250475
0.0025045
0.00250429
0.00250411
0.00250395
0.00250382
0.00250372
0.00250366
0.00250364
0.00243649
0.0024365
0.00243651
0.00243653
0.00243655
0.00243658
0.00243661
0.00243664
0.00243667
0.0024367
0.00243672
0.00243674
0.00243675
0.00243678
0.00243683
0.00243691
0.00243705
0.00243727
0.00243763
0.00243827
0.00243967
0.00244201
0.00244609
0.00247647
0.00249699
0.00254128
0.00269827
0.00547556
0.186517
3.09163
1.42354
0.0321439
0.00290021
0.00261913
0.00253036
0.00248873
0.00248468
0.00245616
0.00245315
0.00245115
0.00244976
0.00244885
0.00244813
0.00244753
0.002447
0.00244651
0.00244606
0.00244564
0.00244525
0.0024449
0.00244458
0.00244428
0.00244402
0.0024438
0.00244361
0.00244344
0.0024433
0.0024432
0.00244314
0.00244312
0.00237877
0.00237877
0.00237879
0.00237881
0.00237883
0.00237887
0.00237891
0.00237894
0.00237899
0.00237902
0.00237906
0.00237909
0.00237913
0.00237919
0.00237929
0.00237943
0.00237966
0.00237999
0.00238053
0.00238142
0.00238322
0.00238616
0.00239123
0.00242252
0.00244658
0.00250255
0.00271374
0.00751345
0.263449
0.731806
0.00397991
0.00269456
0.00250491
0.00243767
0.00243174
0.00240092
0.00239718
0.00239474
0.00239294
0.00239174
0.00239084
0.00239011
0.00238948
0.00238892
0.00238842
0.00238796
0.00238754
0.00238716
0.00238682
0.00238651
0.00238624
0.002386
0.0023858
0.00238564
0.00238549
0.00238539
0.00238533
0.00238531
0.0023236
0.0023236
0.00232362
0.00232364
0.00232367
0.00232371
0.00232376
0.00232381
0.00232385
0.0023239
0.00232395
0.002324
0.00232406
0.00232415
0.00232429
0.00232449
0.0023248
0.00232524
0.00232592
0.00232705
0.00232915
0.00233251
0.00233869
0.00237046
0.00239588
0.00245528
0.0026982
0.00829697
0.227892
0.256881
0.305368
0.00446525
0.00280531
0.00249021
0.00239137
0.00238054
0.00234836
0.00234356
0.00234078
0.00233863
0.00233715
0.00233607
0.00233522
0.0023345
0.00233388
0.00233333
0.00233283
0.00233238
0.00233197
0.00233161
0.00233129
0.002331
0.00233076
0.00233055
0.00233037
0.00233023
0.00233012
0.00233006
0.00233004
0.00227082
0.00227083
0.00227085
0.00227087
0.00227091
0.00227095
0.002271
0.00227106
0.00227111
0.00227117
0.00227123
0.00227129
0.00227137
0.00227149
0.00227167
0.00227192
0.00227228
0.00227281
0.00227362
0.00227492
0.00227722
0.00228083
0.0022886
0.00232069
0.00234691
0.00240099
0.00263664
0.00936513
0.534794
0.592882
0.39482
0.246054
0.00443451
0.00289463
0.00246914
0.00234895
0.00232981
0.00229813
0.00229205
0.00228898
0.00228661
0.00228485
0.00228361
0.00228265
0.00228186
0.00228118
0.00228058
0.00228005
0.00227958
0.00227915
0.00227877
0.00227844
0.00227814
0.00227789
0.00227767
0.00227749
0.00227734
0.00227723
0.00227716
0.00227715
0.00222029
0.00222029
0.00222031
0.00222034
0.00222038
0.00222043
0.00222049
0.00222055
0.00222061
0.00222067
0.00222073
0.00222081
0.00222091
0.00222105
0.00222126
0.00222155
0.00222196
0.00222253
0.00222342
0.00222486
0.00222724
0.00223106
0.00224115
0.00227378
0.00230082
0.00235944
0.00263723
0.00999269
0.482056
0.242555
0.514023
0.149712
0.00452854
0.00290603
0.0024272
0.0023073
0.00227936
0.00224982
0.0022425
0.00223913
0.00223668
0.00223465
0.00223328
0.00223223
0.00223138
0.00223066
0.00223003
0.00222948
0.00222898
0.00222854
0.00222815
0.0022278
0.0022275
0.00222724
0.00222702
0.00222683
0.00222668
0.00222657
0.0022265
0.00222649
0.00217186
0.00217186
0.00217189
0.00217192
0.00217196
0.00217201
0.00217208
0.00217214
0.00217221
0.00217227
0.00217234
0.00217242
0.00217254
0.0021727
0.00217293
0.00217324
0.00217365
0.00217422
0.00217517
0.00217672
0.00217916
0.00218333
0.00219634
0.00222999
0.00225829
0.00235605
0.00277221
0.0092467
0.231636
0.24627
0.460429
0.165134
0.00520907
0.00283836
0.00236801
0.0022637
0.00222997
0.002203
0.00219483
0.00219109
0.00218867
0.00218643
0.00218495
0.00218383
0.00218294
0.00218219
0.00218154
0.00218096
0.00218045
0.00218
0.0021796
0.00217925
0.00217894
0.00217867
0.00217845
0.00217826
0.00217811
0.00217799
0.00217793
0.00217791
0.00212541
0.00212542
0.00212544
0.00212547
0.00212552
0.00212558
0.00212564
0.00212571
0.00212578
0.00212584
0.00212592
0.00212601
0.00212614
0.00212631
0.00212653
0.0021268
0.00212721
0.00212783
0.00212883
0.00213048
0.00213293
0.00213769
0.00215341
0.00218833
0.00222459
0.00238944
0.00292718
0.00796376
0.112963
0.917547
0.536507
0.220717
0.00519318
0.00271881
0.00230565
0.00221822
0.00218267
0.00215734
0.00214899
0.00214479
0.00214243
0.00214001
0.00213847
0.00213732
0.00213641
0.00213563
0.00213497
0.00213438
0.00213387
0.00213341
0.00213301
0.00213265
0.00213233
0.00213207
0.00213184
0.00213166
0.0021315
0.00213139
0.00213132
0.0021313
0.00208082
0.00208083
0.00208085
0.00208089
0.00208094
0.002081
0.00208107
0.00208114
0.0020812
0.00208128
0.00208136
0.00208145
0.00208157
0.00208171
0.00208192
0.00208223
0.00208267
0.00208331
0.00208433
0.00208603
0.00208844
0.00209403
0.00211128
0.0021477
0.00220447
0.00242434
0.00308675
0.00840779
0.782286
1.74016
1.10046
0.651517
0.0049554
0.00263167
0.00224752
0.00217411
0.00213787
0.00211249
0.00210479
0.00210016
0.00209781
0.00209528
0.00209371
0.00209258
0.00209166
0.00209088
0.00209022
0.00208963
0.00208911
0.00208865
0.00208825
0.00208789
0.00208758
0.00208731
0.00208708
0.0020869
0.00208674
0.00208663
0.00208656
0.00208654
0.00203799
0.002038
0.00203802
0.00203806
0.00203811
0.00203817
0.00203825
0.00203831
0.00203838
0.00203846
0.00203853
0.00203862
0.00203872
0.00203887
0.00203911
0.00203944
0.00203988
0.00204052
0.00204153
0.00204325
0.00204568
0.00205212
0.00206933
0.00210771
0.00219391
0.0024378
0.00337188
0.0558361
1.99789
2.26929
1.75367
1.97765
0.0251787
0.00262045
0.00220006
0.00213122
0.00209563
0.00206881
0.0020621
0.00205719
0.0020548
0.00205224
0.00205064
0.00204949
0.00204859
0.00204783
0.00204717
0.00204659
0.00204608
0.00204562
0.00204522
0.00204486
0.00204455
0.00204429
0.00204406
0.00204388
0.00204372
0.00204361
0.00204354
0.00204353
0.00199681
0.00199682
0.00199685
0.00199689
0.00199694
0.001997
0.00199707
0.00199714
0.00199721
0.00199727
0.00199732
0.0019974
0.00199754
0.00199772
0.00199797
0.0019983
0.00199873
0.00199935
0.00200036
0.00200208
0.00200457
0.00201164
0.00202807
0.00206878
0.00218054
0.00246378
0.00419177
0.418708
2.08514
2.21447
2.18277
2.35799
0.270198
0.00269677
0.00217123
0.00208922
0.00205513
0.00202646
0.00202082
0.00201595
0.00201331
0.00201077
0.00200917
0.00200801
0.0020071
0.00200635
0.00200573
0.00200518
0.00200467
0.00200422
0.00200383
0.00200347
0.00200317
0.00200291
0.00200269
0.0020025
0.00200235
0.00200224
0.00200217
0.00200216
0.0019572
0.0019572
0.00195723
0.00195727
0.00195733
0.00195739
0.00195747
0.00195753
0.00195759
0.00195764
0.00195769
0.00195779
0.00195795
0.00195814
0.0019584
0.00195871
0.00195913
0.00195974
0.00196073
0.00196244
0.00196503
0.00197239
0.00198841
0.00203154
0.00215535
0.00254344
0.0100392
0.772734
1.81457
1.99654
2.24337
2.26444
0.629025
0.00342004
0.00215291
0.00204927
0.00201559
0.00198583
0.00198079
0.00197627
0.00197336
0.00197077
0.0019692
0.00196807
0.00196716
0.00196642
0.00196581
0.00196528
0.0019648
0.00196437
0.00196398
0.00196363
0.00196333
0.00196308
0.00196286
0.00196268
0.00196253
0.00196242
0.00196235
0.00196234
0.00191906
0.00191906
0.00191909
0.00191914
0.00191919
0.00191926
0.00191933
0.00191938
0.00191943
0.00191948
0.00191956
0.00191968
0.00191984
0.00192004
0.00192029
0.0019206
0.00192101
0.00192161
0.00192259
0.00192427
0.00192698
0.00193434
0.00195099
0.00199602
0.0021268
0.00265453
0.0284565
0.858201
1.55309
2.03106
2.29505
2.11846
0.79553
0.00554137
0.00212643
0.00201265
0.00197672
0.00194721
0.001942
0.00193798
0.00193484
0.00193226
0.00193064
0.00192954
0.00192867
0.00192794
0.00192734
0.00192683
0.00192638
0.00192597
0.00192559
0.00192525
0.00192496
0.00192471
0.0019245
0.00192432
0.00192418
0.00192407
0.001924
0.00192399
0.00188231
0.00188232
0.00188235
0.00188239
0.00188245
0.00188251
0.00188256
0.00188261
0.00188267
0.00188274
0.00188284
0.00188296
0.00188313
0.00188333
0.00188359
0.00188389
0.0018843
0.00188488
0.00188586
0.00188756
0.00189032
0.0018976
0.00191579
0.00196179
0.00210286
0.00276733
0.0505385
0.816806
1.30324
1.83789
2.00431
1.81423
0.804091
0.00739476
0.00208975
0.00197809
0.00193871
0.00191061
0.0019045
0.00190099
0.00189767
0.00189514
0.00189352
0.00189239
0.00189151
0.00189081
0.00189025
0.00188976
0.00188933
0.00188894
0.00188858
0.00188826
0.00188798
0.00188774
0.00188753
0.00188735
0.00188721
0.00188711
0.00188704
0.00188704
0.00184689
0.00184689
0.00184692
0.00184697
0.00184702
0.00184708
0.00184713
0.00184719
0.00184726
0.00184734