/*--------------------------------*- C++ -*----------------------------------*\
  =========                 |
  \\      /  F ield         | OpenFOAM: The Open Source CFD Toolbox
   \\    /   O peration     | Website:  https://openfoam.org
    \\  /    A nd           | Version:  12
     \\/     M anipulation  |
\*---------------------------------------------------------------------------*/
FoamFile
{
    format      ascii;
    class       volScalarField;
    location    "20";
    object      nut;
}
// * * * * * * * * * * * * * * * * * * * * * * * * * * * * * * * * * * * * * //

dimensions      [0 2 -1 0 0 0 0];

internalField   nonuniform List<scalar> 
16227
(
0.000978543
0.000978543
0.000978543
0.000978543
0.000978543
0.000978543
0.000978543
0.000978543
0.000978543
0.000978543
0.000978543
0.000978543
0.000978544
0.000978544
0.000978544
0.000978544
0.000978544
0.000978544
0.000978544
0.000978544
0.000978544
0.000978544
0.000978544
0.000978544
0.000978544
0.000978544
0.000978544
0.000978544
0.000978544
0.000978544
0.000978544
0.000978544
0.000978544
0.000978544
0.000978544
0.000978544
0.000978544
0.000978544
0.000978544
0.000978544
0.000978544
0.000978544
0.000978544
0.000978544
0.000978544
0.000978544
0.000978544
0.000978544
0.000978544
0.000978544
0.000978544
0.000978544
0.000978543
0.000978543
0.000978543
0.000978543
0.000978543
0.000978543
0.000978543
0.000978543
0.000972833
0.000972834
0.000972834
0.000972834
0.000972834
0.000972834
0.000972834
0.000972834
0.000972834
0.000972834
0.000972834
0.000972835
0.000972836
0.000972836
0.000972836
0.000972836
0.000972836
0.000972836
0.000972836
0.000972836
0.000972837
0.000972837
0.000972837
0.000972837
0.000972837
0.000972837
0.000972837
0.000972837
0.000972837
0.000972837
0.000972837
0.000972837
0.000972837
0.000972837
0.000972837
0.000972837
0.000972837
0.000972837
0.000972837
0.000972837
0.000972837
0.000972837
0.000972837
0.000972837
0.000972837
0.000972837
0.000972837
0.000972837
0.000972837
0.000972837
0.000972837
0.000972836
0.000972835
0.000972835
0.000972835
0.000972835
0.000972835
0.000972835
0.000972835
0.000972835
0.000967493
0.000967493
0.000967493
0.000967493
0.000967493
0.000967494
0.000967493
0.000967493
0.000967494
0.000967494
0.000967494
0.000967494
0.000967496
0.000967497
0.000967497
0.000967497
0.000967497
0.000967497
0.000967497
0.000967497
0.000967497
0.000967498
0.000967498
0.000967498
0.000967498
0.000967498
0.000967498
0.000967498
0.000967498
0.000967498
0.000967498
0.000967499
0.000967499
0.000967499
0.000967499
0.000967499
0.000967499
0.000967499
0.000967499
0.000967499
0.000967499
0.000967499
0.000967499
0.000967499
0.000967499
0.000967499
0.000967499
0.000967499
0.000967499
0.000967499
0.000967499
0.000967497
0.000967496
0.000967496
0.000967496
0.000967496
0.000967496
0.000967496
0.000967496
0.000967496
0.00096248
0.00096248
0.00096248
0.00096248
0.00096248
0.00096248
0.00096248
0.00096248
0.00096248
0.00096248
0.00096248
0.000962481
0.000962483
0.000962484
0.000962484
0.000962484
0.000962485
0.000962485
0.000962484
0.000962483
0.000962484
0.000962485
0.000962485
0.000962485
0.000962485
0.000962486
0.000962486
0.000962486
0.000962486
0.000962485
0.000962486
0.000962486
0.000962486
0.000962487
0.000962487
0.000962487
0.000962487
0.000962488
0.000962488
0.000962488
0.000962488
0.000962488
0.000962488
0.000962488
0.000962488
0.000962488
0.000962488
0.000962488
0.000962488
0.000962488
0.000962487
0.000962485
0.000962484
0.000962484
0.000962484
0.000962484
0.000962484
0.000962483
0.000962484
0.000962483
0.000957758
0.000957758
0.000957758
0.000957758
0.000957758
0.000957759
0.000957759
0.000957758
0.000957758
0.000957758
0.000957758
0.000957759
0.000957761
0.000957763
0.000957763
0.000957763
0.000957763
0.000957763
0.000957761
0.00095776
0.000957762
0.000957763
0.000957763
0.000957763
0.000957764
0.000957764
0.000957764
0.000957764
0.000957764
0.000957763
0.000957765
0.000957765
0.000957765
0.000957766
0.000957766
0.000957766
0.000957767
0.000957767
0.000957767
0.000957768
0.000957768
0.000957768
0.000957768
0.000957768
0.000957768
0.000957768
0.000957768
0.000957768
0.000957768
0.000957767
0.000957765
0.000957763
0.000957763
0.000957763
0.000957763
0.000957764
0.000957763
0.000957762
0.000957762
0.000957762
0.000953298
0.000953298
0.000953298
0.000953298
0.000953298
0.000953298
0.000953299
0.000953298
0.000953298
0.000953297
0.000953297
0.000953298
0.000953299
0.000953302
0.000953303
0.000953303
0.000953303
0.000953302
0.000953299
0.000953299
0.000953301
0.000953302
0.000953302
0.000953303
0.000953303
0.000953303
0.000953303
0.000953304
0.000953304
0.000953303
0.000953304
0.000953305
0.000953305
0.000953306
0.000953306
0.000953307
0.000953307
0.000953308
0.000953308
0.000953309
0.000953309
0.000953309
0.000953309
0.000953309
0.000953309
0.000953309
0.000953309
0.000953309
0.000953309
0.000953307
0.000953304
0.000953303
0.000953303
0.000953303
0.000953304
0.000953304
0.000953303
0.000953302
0.000953302
0.000953302
0.000949073
0.000949073
0.000949073
0.000949073
0.000949073
0.000949073
0.000949073
0.000949073
0.000949073
0.000949072
0.000949072
0.000949072
0.000949073
0.000949076
0.000949077
0.000949078
0.000949077
0.000949074
0.000949073
0.000949073
0.000949076
0.000949077
0.000949077
0.000949077
0.000949077
0.000949078
0.000949078
0.000949078
0.000949079
0.000949078
0.000949079
0.00094908
0.000949081
0.000949082
0.000949082
0.000949083
0.000949084
0.000949084
0.000949085
0.000949085
0.000949085
0.000949086
0.000949086
0.000949086
0.000949086
0.000949086
0.000949086
0.000949085
0.000949084
0.000949081
0.000949079
0.000949078
0.000949078
0.000949079
0.000949079
0.000949079
0.000949078
0.000949077
0.000949077
0.000949077
0.000945061
0.000945061
0.000945061
0.000945061
0.000945061
0.000945061
0.000945061
0.000945061
0.00094506
0.00094506
0.000945059
0.000945059
0.000945059
0.000945061
0.000945064
0.000945065
0.000945065
0.000945061
0.00094506
0.00094506
0.000945063
0.000945064
0.000945064
0.000945065
0.000945065
0.000945065
0.000945066
0.000945066
0.000945066
0.000945066
0.000945068
0.000945069
0.00094507
0.000945071
0.000945072
0.000945073
0.000945074
0.000945074
0.000945075
0.000945075
0.000945076
0.000945076
0.000945076
0.000945076
0.000945076
0.000945076
0.000945076
0.000945075
0.000945073
0.00094507
0.000945068
0.000945067
0.000945067
0.000945067
0.000945067
0.000945067
0.000945066
0.000945066
0.000945066
0.000945066
0.000941242
0.000941242
0.000941242
0.000941242
0.000941242
0.000941242
0.000941242
0.000941242
0.000941242
0.000941241
0.00094124
0.00094124
0.00094124
0.000941241
0.000941245
0.000941247
0.000941245
0.000941241
0.00094124
0.00094124
0.000941244
0.000941245
0.000941245
0.000941245
0.000941246
0.000941246
0.000941247
0.000941248
0.000941248
0.000941248
0.00094125
0.000941252
0.000941253
0.000941254
0.000941255
0.000941257
0.000941258
0.000941259
0.00094126
0.00094126
0.000941261
0.000941261
0.000941261
0.000941261
0.000941261
0.000941261
0.00094126
0.000941258
0.000941254
0.000941252
0.00094125
0.00094125
0.00094125
0.00094125
0.00094125
0.000941249
0.000941249
0.000941248
0.000941248
0.000941248
0.0009376
0.0009376
0.0009376
0.0009376
0.0009376
0.0009376
0.0009376
0.0009376
0.000937599
0.000937599
0.000937598
0.000937597
0.000937597
0.000937598
0.000937602
0.000937603
0.0009376
0.000937597
0.000937597
0.000937597
0.000937601
0.000937602
0.000937602
0.000937603
0.000937603
0.000937604
0.000937605
0.000937606
0.000937607
0.000937607
0.000937609
0.000937611
0.000937613
0.000937615
0.000937616
0.000937618
0.000937619
0.000937621
0.000937622
0.000937623
0.000937623
0.000937623
0.000937624
0.000937623
0.000937623
0.000937623
0.000937622
0.00093762
0.000937615
0.000937612
0.000937611
0.000937611
0.00093761
0.00093761
0.00093761
0.000937609
0.000937608
0.000937608
0.000937607
0.000937608
0.00093412
0.00093412
0.00093412
0.00093412
0.00093412
0.000934119
0.00093412
0.000934119
0.000934119
0.000934118
0.000934117
0.000934116
0.000934115
0.000934116
0.000934117
0.000934121
0.000934117
0.000934116
0.000934115
0.000934116
0.000934119
0.000934121
0.000934121
0.000934122
0.000934123
0.000934124
0.000934125
0.000934126
0.000934127
0.000934128
0.000934131
0.000934133
0.000934136
0.000934138
0.00093414
0.000934142
0.000934144
0.000934146
0.000934147
0.000934148
0.000934149
0.000934149
0.000934149
0.000934149
0.000934148
0.000934148
0.000934145
0.000934142
0.000934138
0.000934136
0.000934135
0.000934134
0.000934133
0.000934133
0.000934132
0.000934131
0.00093413
0.000934129
0.000934129
0.00093413
0.000930788
0.000930788
0.000930788
0.000930788
0.000930787
0.000930787
0.000930787
0.000930787
0.000930786
0.000930785
0.000930785
0.000930783
0.000930782
0.000930782
0.000930783
0.000930786
0.000930784
0.000930782
0.000930782
0.000930782
0.000930783
0.000930787
0.000930789
0.000930789
0.000930791
0.000930792
0.000930793
0.000930795
0.000930797
0.000930798
0.000930802
0.000930805
0.000930807
0.00093081
0.000930813
0.000930816
0.000930818
0.000930821
0.000930822
0.000930823
0.000930824
0.000930825
0.000930825
0.000930824
0.000930824
0.000930822
0.000930818
0.000930815
0.000930812
0.000930809
0.000930808
0.000930807
0.000930806
0.000930805
0.000930804
0.000930803
0.000930802
0.000930801
0.000930801
0.000930801
0.000927592
0.000927593
0.000927593
0.000927592
0.000927592
0.000927592
0.000927592
0.000927591
0.00092759
0.00092759
0.000927589
0.000927587
0.000927586
0.000927585
0.000927585
0.000927586
0.000927587
0.000927586
0.000927585
0.000927586
0.000927586
0.000927591
0.000927593
0.000927594
0.000927595
0.000927597
0.000927599
0.000927601
0.000927604
0.000927605
0.00092761
0.000927613
0.000927617
0.000927621
0.000927624
0.000927628
0.000927631
0.000927634
0.000927636
0.000927637
0.000927638
0.000927639
0.000927639
0.000927639
0.000927637
0.000927635
0.000927631
0.000927628
0.000927624
0.000927621
0.000927619
0.000927618
0.000927617
0.000927615
0.000927614
0.000927613
0.000927612
0.000927611
0.00092761
0.000927611
0.000924524
0.000924524
0.000924524
0.000924523
0.000924523
0.000924523
0.000924523
0.000924522
0.000924521
0.00092452
0.000924519
0.000924518
0.000924517
0.000924516
0.000924515
0.000924515
0.000924517
0.000924516
0.000924516
0.000924516
0.000924517
0.000924522
0.000924524
0.000924525
0.000924527
0.000924529
0.000924532
0.000924534
0.000924537
0.000924539
0.000924545
0.00092455
0.000924554
0.000924559
0.000924563
0.000924568
0.000924572
0.000924575
0.000924578
0.00092458
0.000924581
0.000924582
0.000924582
0.000924581
0.000924578
0.000924575
0.000924571
0.000924568
0.000924565
0.000924561
0.000924559
0.000924557
0.000924555
0.000924554
0.000924552
0.000924551
0.000924549
0.000924548
0.000924548
0.000924548
0.000921572
0.000921573
0.000921572
0.000921572
0.000921572
0.000921571
0.000921571
0.00092157
0.00092157
0.000921568
0.000921567
0.000921566
0.000921564
0.000921563
0.000921563
0.000921563
0.000921564
0.000921564
0.000921563
0.000921563
0.000921564
0.000921569
0.000921572
0.000921574
0.000921576
0.000921578
0.000921581
0.000921585
0.000921588
0.000921591
0.000921598
0.000921604
0.00092161
0.000921615
0.000921621
0.000921626
0.000921631
0.000921635
0.000921639
0.000921641
0.000921643
0.000921644
0.000921643
0.000921642
0.000921637
0.000921634
0.000921631
0.000921628
0.000921624
0.00092162
0.000921617
0.000921615
0.000921613
0.000921611
0.000921609
0.000921607
0.000921605
0.000921604
0.000921603
0.000921604
0.000918729
0.00091873
0.00091873
0.000918729
0.000918729
0.000918729
0.000918728
0.000918727
0.000918727
0.000918725
0.000918724
0.000918723
0.000918721
0.00091872
0.000918719
0.00091872
0.000918721
0.000918721
0.00091872
0.00091872
0.000918721
0.000918725
0.000918729
0.000918731
0.000918734
0.000918737
0.000918741
0.000918745
0.000918749
0.000918753
0.000918761
0.000918768
0.000918775
0.000918782
0.000918789
0.000918796
0.000918801
0.000918807
0.000918811
0.000918814
0.000918815
0.000918816
0.000918816
0.000918813
0.000918809
0.000918805
0.000918802
0.000918797
0.000918793
0.000918789
0.000918786
0.000918783
0.000918781
0.000918778
0.000918776
0.000918774
0.000918772
0.00091877
0.000918769
0.00091877
0.000915988
0.000915989
0.000915989
0.000915988
0.000915988
0.000915987
0.000915987
0.000915986
0.000915985
0.000915984
0.000915983
0.000915981
0.00091598
0.000915978
0.000915977
0.000915978
0.000915979
0.000915979
0.000915978
0.000915977
0.000915979
0.000915981
0.000915987
0.00091599
0.000915993
0.000915997
0.000916001
0.000916007
0.000916012
0.000916017
0.000916026
0.000916035
0.000916043
0.000916052
0.00091606
0.000916068
0.000916075
0.000916081
0.000916086
0.00091609
0.000916092
0.000916093
0.000916091
0.000916087
0.000916084
0.00091608
0.000916076
0.000916071
0.000916066
0.000916062
0.000916058
0.000916055
0.000916051
0.000916048
0.000916046
0.000916043
0.000916041
0.000916039
0.000916038
0.000916039
0.000913342
0.000913343
0.000913343
0.000913342
0.000913342
0.000913341
0.00091334
0.00091334
0.000913339
0.000913337
0.000913336
0.000913334
0.000913333
0.000913331
0.00091333
0.000913331
0.000913332
0.000913332
0.000913331
0.000913331
0.000913332
0.000913334
0.00091334
0.000913345
0.000913348
0.000913353
0.000913358
0.000913364
0.00091337
0.000913377
0.000913387
0.000913397
0.000913407
0.000913418
0.000913428
0.000913437
0.000913446
0.000913453
0.000913459
0.000913463
0.000913466
0.000913466
0.000913462
0.000913459
0.000913456
0.000913452
0.000913447
0.000913442
0.000913436
0.000913431
0.000913427
0.000913423
0.000913419
0.000913415
0.000913412
0.000913409
0.000913406
0.000913404
0.000913403
0.000913404
0.000910785
0.000910785
0.000910785
0.000910785
0.000910784
0.000910783
0.000910783
0.000910782
0.000910781
0.00091078
0.000910778
0.000910776
0.000910775
0.000910773
0.000910772
0.000910773
0.000910774
0.000910774
0.000910773
0.000910773
0.000910774
0.000910776
0.000910783
0.000910788
0.000910793
0.000910798
0.000910804
0.000910811
0.000910819
0.000910827
0.000910839
0.000910851
0.000910862
0.000910875
0.000910887
0.000910898
0.000910908
0.000910917
0.000910923
0.000910928
0.00091093
0.00091093
0.000910926
0.000910923
0.000910919
0.000910915
0.000910909
0.000910902
0.000910897
0.000910891
0.000910886
0.000910881
0.000910876
0.000910872
0.000910868
0.000910864
0.000910861
0.000910859
0.000910857
0.000910858
0.00090831
0.000908311
0.000908311
0.00090831
0.00090831
0.000908309
0.000908308
0.000908307
0.000908306
0.000908305
0.000908304
0.000908302
0.0009083
0.000908299
0.000908298
0.000908298
0.000908299
0.000908299
0.000908299
0.000908299
0.0009083
0.000908302
0.000908307
0.000908315
0.000908321
0.000908328
0.000908335
0.000908343
0.000908353
0.000908362
0.000908376
0.00090839
0.000908404
0.000908418
0.000908432
0.000908445
0.000908456
0.000908466
0.000908473
0.000908477
0.000908479
0.000908478
0.000908475
0.000908472
0.000908468
0.000908463
0.000908455
0.000908448
0.000908442
0.000908436
0.000908429
0.000908423
0.000908418
0.000908413
0.000908408
0.000908404
0.000908401
0.000908398
0.000908396
0.000908397
0.000905914
0.000905915
0.000905915
0.000905914
0.000905913
0.000905913
0.000905912
0.000905911
0.00090591
0.000905909
0.000905907
0.000905906
0.000905904
0.000905903
0.000905902
0.000905901
0.000905902
0.000905903
0.000905903
0.000905904
0.000905905
0.000905908
0.000905913
0.000905923
0.00090593
0.000905939
0.000905948
0.000905958
0.000905969
0.00090598
0.000905996
0.000906011
0.000906027
0.000906043
0.000906059
0.000906074
0.000906087
0.000906097
0.000906104
0.000906109
0.000906109
0.000906108
0.000906106
0.000906103
0.000906098
0.00090609
0.000906082
0.000906075
0.000906067
0.00090606
0.000906053
0.000906046
0.000906039
0.000906033
0.000906028
0.000906024
0.000906019
0.000906017
0.000906015
0.000906016
0.000903592
0.000903592
0.000903592
0.000903591
0.000903591
0.00090359
0.000903589
0.000903588
0.000903587
0.000903586
0.000903585
0.000903583
0.000903582
0.000903581
0.000903579
0.000903579
0.00090358
0.000903582
0.000903583
0.000903584
0.000903586
0.00090359
0.000903596
0.000903607
0.00090362
0.000903632
0.000903646
0.000903659
0.000903672
0.000903685
0.0009037
0.000903716
0.000903731
0.000903748
0.000903765
0.000903781
0.000903796
0.000903806
0.000903813
0.000903817
0.000903818
0.000903817
0.000903814
0.00090381
0.000903803
0.000903794
0.000903785
0.000903777
0.000903768
0.000903759
0.000903751
0.000903743
0.000903736
0.000903729
0.000903723
0.000903718
0.000903713
0.00090371
0.000903708
0.000903709
0.000901338
0.000901339
0.000901338
0.000901338
0.000901337
0.000901336
0.000901336
0.000901335
0.000901334
0.000901333
0.000901332
0.00090133
0.000901329
0.000901328
0.000901327
0.000901327
0.000901329
0.000901331
0.000901333
0.000901335
0.000901339
0.000901346
0.000901354
0.00090137
0.000901398
0.000901415
0.000901432
0.000901449
0.000901465
0.000901476
0.000901489
0.000901501
0.000901514
0.000901528
0.000901544
0.000901562
0.000901579
0.000901589
0.000901594
0.000901598
0.000901599
0.000901598
0.000901594
0.000901588
0.000901579
0.000901569
0.00090156
0.00090155
0.00090154
0.00090153
0.00090152
0.000901511
0.000901502
0.000901495
0.000901488
0.000901482
0.000901477
0.000901473
0.000901471
0.000901472
0.00089915
0.000899151
0.00089915
0.00089915
0.000899149
0.000899148
0.000899148
0.000899147
0.000899146
0.000899145
0.000899144
0.000899143
0.000899142
0.000899142
0.000899141
0.000899142
0.000899143
0.000899146
0.00089915
0.000899155
0.000899163
0.000899174
0.000899189
0.000899221
0.000900269
0.000900296
0.000900313
0.000900333
0.000900353
0.000900368
0.000900384
0.000900398
0.00090041
0.000900423
0.000900437
0.000900451
0.000899446
0.000899446
0.000899448
0.000899451
0.000899452
0.000899449
0.000899443
0.000899434
0.000899424
0.000899413
0.000899402
0.00089939
0.000899379
0.000899367
0.000899356
0.000899345
0.000899336
0.000899327
0.000899319
0.000899313
0.000899307
0.000899303
0.0008993
0.000899301
0.000897024
0.000897024
0.000897024
0.000897023
0.000897023
0.000897022
0.000897022
0.000897021
0.00089702
0.00089702
0.000897019
0.000897018
0.000897018
0.000897018
0.000897018
0.000897019
0.000897022
0.000897026
0.000897032
0.000897042
0.000897055
0.000897074
0.0008971
0.000898134
0.000898099
0.000898131
0.000898167
0.00089821
0.000898252
0.000898287
0.000898316
0.000898333
0.00089834
0.000898344
0.000898348
0.000898346
0.000898388
0.000897386
0.000897375
0.000897374
0.000897372
0.000897366
0.000897358
0.000897346
0.000897334
0.000897321
0.000897308
0.000897294
0.000897281
0.000897268
0.000897255
0.000897243
0.000897232
0.000897222
0.000897214
0.000897206
0.0008972
0.000897196
0.000897193
0.000897194
0.000894956
0.000894956
0.000894956
0.000894955
0.000894955
0.000894954
0.000894954
0.000894954
0.000894953
0.000894953
0.000894953
0.000894952
0.000894952
0.000894953
0.000894955
0.000894957
0.000894962
0.000894968
0.000894978
0.000894994
0.000895016
0.000895052
0.000895085
0.00089602
0.000896067
0.000896583
0.000896661
0.00089673
0.000896794
0.000896841
0.000896863
0.000896854
0.000896832
0.000896812
0.000896801
0.000896322
0.000896377
0.000895404
0.000895375
0.000895365
0.000895357
0.000895347
0.000895334
0.00089532
0.000895305
0.00089529
0.000895274
0.000895259
0.000895243
0.000895228
0.000895214
0.0008952
0.000895188
0.000895177
0.000895167
0.000895159
0.000895152
0.000895147
0.000895144
0.000895145
0.000892943
0.000892944
0.000892943
0.000892943
0.000892943
0.000892942
0.000892942
0.000892942
0.000892942
0.000892942
0.000892942
0.000892942
0.000892943
0.000892945
0.000892948
0.000892952
0.000892959
0.00089297
0.000892985
0.000893008
0.000893046
0.000893111
0.000893155
0.000894024
0.000894208
0.000894634
0.00089488
0.000895062
0.000895209
0.000895285
0.000895265
0.000895174
0.000895062
0.000894968
0.000894901
0.00089444
0.000894421
0.000893514
0.000893452
0.000893424
0.000893405
0.000893388
0.00089337
0.000893353
0.000893335
0.000893317
0.000893299
0.00089328
0.000893263
0.000893245
0.000893229
0.000893214
0.0008932
0.000893188
0.000893177
0.000893168
0.000893161
0.000893155
0.000893152
0.000893153
0.000890983
0.000890984
0.000890983
0.000890983
0.000890983
0.000890983
0.000890983
0.000890983
0.000890983
0.000890983
0.000890984
0.000890985
0.000890987
0.00089099
0.000890995
0.000891002
0.000891013
0.000891028
0.000891051
0.000891086
0.000891149
0.000891252
0.000891321
0.000892165
0.000892563
0.000892963
0.000893544
0.000894075
0.000894578
0.000894832
0.000894642
0.000894171
0.000893694
0.000893339
0.000893106
0.000892709
0.00089256
0.000891708
0.000891606
0.000891549
0.000891515
0.000891488
0.000891465
0.000891442
0.00089142
0.000891399
0.000891377
0.000891356
0.000891336
0.000891316
0.000891298
0.000891281
0.000891266
0.000891253
0.000891241
0.000891231
0.000891223
0.000891217
0.000891213
0.000891214
0.000889073
0.000889073
0.000889073
0.000889073
0.000889073
0.000889073
0.000889073
0.000889073
0.000889074
0.000889075
0.000889076
0.000889078
0.000889081
0.000889086
0.000889093
0.000889104
0.000889119
0.000889142
0.000889176
0.000889229
0.000889327
0.000889482
0.000889599
0.00089048
0.000891228
0.000891681
0.000892971
0.000894693
0.000896975
0.000898649
0.0008978
0.000895427
0.000893463
0.000892263
0.000891569
0.000891165
0.000890828
0.000889981
0.000889839
0.000889741
0.000889685
0.000889647
0.000889615
0.000889586
0.000889559
0.000889532
0.000889507
0.000889483
0.00088946
0.000889439
0.000889418
0.0008894
0.000889383
0.000889368
0.000889355
0.000889344
0.000889335
0.000889329
0.000889325
0.000889326
0.00088721
0.000887211
0.000887211
0.000887211
0.000887211
0.000887211
0.000887211
0.000887212
0.000887213
0.000887214
0.000887216
0.000887219
0.000887224
0.00088723
0.00088724
0.000887255
0.000887277
0.000887309
0.000887358
0.000887434
0.000887581
0.000887806
0.000888007
0.000889014
0.000890343
0.000891073
0.000894275
0.000900511
0.000913117
0.00092762
0.000920263
0.000904356
0.000895989
0.000892262
0.000890509
0.000889821
0.000889287
0.00088833
0.000888153
0.000888004
0.000887916
0.000887861
0.000887817
0.00088778
0.000887747
0.000887716
0.000887686
0.000887659
0.000887633
0.000887609
0.000887587
0.000887566
0.000887548
0.000887531
0.000887517
0.000887506
0.000887496
0.000887489
0.000887485
0.000887486
0.000885393
0.000885393
0.000885393
0.000885393
0.000885393
0.000885394
0.000885394
0.000885396
0.000885397
0.000885399
0.000885402
0.000885406
0.000885412
0.00088542
0.000885433
0.000885453
0.000885482
0.000885526
0.000885593
0.000885698
0.000885908
0.000886224
0.000886554
0.000887796
0.000889969
0.000891638
0.000899682
0.00092424
0.000656244
0.000373512
0.000458358
0.000943661
0.00090513
0.000894396
0.00089033
0.00088868
0.000888005
0.000886758
0.000886545
0.000886335
0.000886204
0.000886128
0.00088607
0.000886023
0.000885982
0.000885946
0.000885912
0.000885881
0.000885852
0.000885825
0.000885801
0.000885778
0.000885758
0.000885741
0.000885726
0.000885713
0.000885703
0.000885695
0.00088569
0.000885691
0.000883618
0.000883619
0.000883619
0.000883619
0.000883619
0.00088362
0.000883621
0.000883622
0.000883624
0.000883627
0.000883631
0.000883635
0.000883642
0.000883653
0.00088367
0.000883695
0.000883733
0.00088379
0.000883878
0.000884019
0.000884298
0.000884723
0.000885223
0.000886811
0.000890027
0.000893862
0.000911906
0.000699666
0.00163792
0.00214961
0.00258126
0.000930669
0.000925261
0.000900212
0.000891475
0.000887766
0.000887024
0.000885269
0.000885009
0.000884732
0.000884549
0.000884445
0.000884369
0.000884311
0.000884263
0.00088422
0.000884182
0.000884147
0.000884115
0.000884085
0.000884059
0.000884034
0.000884013
0.000883994
0.000883978
0.000883964
0.000883953
0.000883945
0.000883939
0.000883941
0.000881885
0.000881885
0.000881886
0.000881886
0.000881886
0.000881887
0.000881888
0.00088189
0.000881893
0.000881896
0.0008819
0.000881906
0.000881915
0.000881928
0.000881948
0.00088198
0.000882028
0.000882099
0.00088221
0.000882389
0.000882741
0.00088328
0.000883963
0.000885959
0.000890235
0.000897163
0.000928728
0.000792291
0.00125228
0.00321106
0.00414375
0.00177028
0.00062799
0.000912468
0.000894339
0.000887148
0.000886318
0.000883866
0.000883531
0.000883189
0.000882946
0.000882809
0.000882713
0.000882642
0.000882585
0.000882536
0.000882493
0.000882454
0.000882419
0.000882387
0.000882358
0.000882332
0.000882308
0.000882288
0.000882271
0.000882256
0.000882245
0.000882236
0.00088223
0.000882232
0.000880191
0.000880191
0.000880192
0.000880192
0.000880193
0.000880193
0.000880195
0.000880197
0.0008802
0.000880204
0.000880209
0.000880215
0.000880225
0.000880241
0.000880266
0.000880305
0.000880362
0.000880449
0.000880584
0.000880803
0.000881224
0.000881867
0.000882733
0.000885127
0.000890138
0.000899609
0.000942477
0.000873539
0.00108768
0.00347804
0.000315394
0.000936725
0.000899472
0.000886898
0.000885767
0.000882557
0.000882092
0.000881694
0.000881392
0.000881215
0.000881098
0.000881013
0.000880946
0.00088089
0.000880842
0.0008808
0.000880762
0.000880727
0.000880696
0.000880668
0.000880643
0.000880622
0.000880603
0.000880588
0.000880576
0.000880567
0.000880561
0.000880562
0.000878534
0.000878535
0.000878535
0.000878535
0.000878536
0.000878537
0.000878539
0.000878542
0.000878545
0.000878549
0.000878554
0.000878561
0.000878573
0.000878592
0.000878621
0.000878667
0.000878734
0.000878836
0.000878996
0.000879255
0.000879735
0.000880462
0.000881562
0.000884306
0.00088962
0.00090008
0.00095052
0.000804298
0.00130679
0.00026745
0.00253962
0.000336759
0.000885633
0.000906685
0.000887238
0.000885145
0.00088136
0.000880681
0.000880239
0.000879885
0.000879664
0.000879522
0.000879422
0.000879346
0.000879283
0.00087923
0.000879184
0.000879142
0.000879105
0.000879072
0.000879042
0.000879016
0.000878993
0.000878974
0.000878958
0.000878945
0.000878936
0.000878929
0.000878931
0.000876914
0.000876914
0.000876914
0.000876915
0.000876916
0.000876917
0.000876919
0.000876922
0.000876925
0.000876929
0.000876935
0.000876943
0.000876957
0.000876978
0.000877012
0.000877063
0.000877141
0.000877257
0.000877441
0.00087774
0.00087827
0.000879063
0.000880526
0.000883616
0.000889148
0.000898911
0.000949392
0.00138444
0.00328318
0.00138856
0.0018291
0.00407383
0.000814184
0.000990728
0.000912667
0.000888142
0.000884255
0.000880264
0.000879297
0.000878809
0.00087842
0.000878149
0.000877983
0.000877867
0.000877781
0.000877712
0.000877654
0.000877603
0.000877559
0.00087752
0.000877484
0.000877453
0.000877426
0.000877402
0.000877381
0.000877365
0.000877351
0.000877341
0.000877334
0.000877336
0.000875328
0.000875327
0.000875328
0.000875329
0.00087533
0.000875331
0.000875333
0.000875336
0.000875339
0.000875344
0.00087535
0.000875359
0.000875373
0.000875397
0.000875435
0.000875493
0.000875579
0.00087571
0.000875916
0.000876254
0.000876822
0.000877692
0.00087972
0.000883232
0.000889037
0.000900185
0.000960838
0.00142523
0.0026945
0.000847522
0.00452531
0.00409013
0.000985091
0.00100847
0.000914337
0.000889028
0.000883099
0.00087923
0.000877951
0.000877396
0.000876992
0.000876667
0.000876476
0.000876345
0.00087625
0.000876174
0.000876111
0.000876057
0.00087601
0.000875968
0.000875931
0.000875898
0.000875869
0.000875844
0.000875823
0.000875806
0.000875791
0.000875781
0.000875774
0.000875776
0.000873774
0.000873774
0.000873775
0.000873775
0.000873776
0.000873778
0.00087378
0.000873783
0.000873786
0.00087379
0.000873797
0.000873806
0.000873822
0.000873849
0.00087389
0.000873953
0.000874046
0.000874189
0.000874417
0.000874795
0.000875394
0.000876393
0.000879165
0.000883233
0.000889522
0.000909562
0.00099971
0.00142779
0.00173661
0.00128276
0.00389582
0.00625208
0.0011194
0.00101053
0.000912155
0.000889269
0.000881856
0.000878191
0.000876661
0.000876002
0.000875595
0.000875216
0.000875
0.000874854
0.000874749
0.000874667
0.0008746
0.000874543
0.000874493
0.000874449
0.00087441
0.000874376
0.000874346
0.00087432
0.000874298
0.00087428
0.000874265
0.000874254
0.000874247
0.000874249
0.000872252
0.000872252
0.000872253
0.000872253
0.000872255
0.000872256
0.000872258
0.000872261
0.000872264
0.000872268
0.000872275
0.000872285
0.000872302
0.00087233
0.000872374
0.00087244
0.00087254
0.000872695
0.000872944
0.00087336
0.000873988
0.000875206
0.000878721
0.000883424
0.000891921
0.000926878
0.0010423
0.00141786
0.0017441
0.00686545
0.00551629
0.00866445
0.00114227
0.00100059
0.000908962
0.000888886
0.00088076
0.000877074
0.000875431
0.000874633
0.000874221
0.000873791
0.000873551
0.000873392
0.000873279
0.000873191
0.000873119
0.000873059
0.000873007
0.000872962
0.000872921
0.000872886
0.000872854
0.000872828
0.000872805
0.000872786
0.000872771
0.000872759
0.000872752
0.000872754
0.000870761
0.000870761
0.000870761
0.000870762
0.000870763
0.000870765
0.000870767
0.000870769
0.000870772
0.000870776
0.000870782
0.000870793
0.000870811
0.000870839
0.000870885
0.000870955
0.000871062
0.000871228
0.000871497
0.000871948
0.000872608
0.000874125
0.000878137
0.000883562
0.000897444
0.00094445
0.00108603
0.00145119
0.0166525
0.0144715
0.0122739
0.0179979
0.00101117
0.000996306
0.000906239
0.000888452
0.000879927
0.000875832
0.000874242
0.000873299
0.000872867
0.00087239
0.000872128
0.000871958
0.000871837
0.000871744
0.000871668
0.000871605
0.000871551
0.000871504
0.000871462
0.000871425
0.000871393
0.000871366
0.000871342
0.000871323
0.000871307
0.000871295
0.000871288
0.00087129
0.000869299
0.000869298
0.000869299
0.0008693
0.000869301
0.000869302
0.000869304
0.000869306
0.000869309
0.000869313
0.000869318
0.000869329
0.000869347
0.000869376
0.000869425
0.000869499
0.000869611
0.000869786
0.000870071
0.000870555
0.000871265
0.000873104
0.000877252
0.000883552
0.00090516
0.000957336
0.00115361
0.00508278
0.0271815
0.0201641
0.0198312
0.0371761
0.00333574
0.00100814
0.000905595
0.000887976
0.000879331
0.000874486
0.000873066
0.000872008
0.000871529
0.000871015
0.000870732
0.000870549
0.000870422
0.000870324
0.000870245
0.00087018
0.000870124
0.000870075
0.000870032
0.000869994
0.000869961
0.000869933
0.000869909
0.000869889
0.000869873
0.000869861
0.000869853
0.000869855
0.000867865
0.000867864
0.000867865
0.000867865
0.000867866
0.000867868
0.00086787
0.000867871
0.000867873
0.000867876
0.000867881
0.000867891