/*--------------------------------*- C++ -*----------------------------------*\
  =========                 |
  \\      /  F ield         | OpenFOAM: The Open Source CFD Toolbox
   \\    /   O peration     | Website:  https://openfoam.org
    \\  /    A nd           | Version:  12
     \\/     M anipulation  |
\*---------------------------------------------------------------------------*/
FoamFile
{
    format      ascii;
    class       volScalarField;
    location    "20";
    object      omega;
}
// * * * * * * * * * * * * * * * * * * * * * * * * * * * * * * * * * * * * * //

dimensions      [0 0 -1 0 0 0 0];

internalField   nonuniform List<scalar> 
16227
(
9.34702
9.34704
9.34703
9.34707
9.34706
9.3471
9.34709
9.34707
9.34707
9.34709
9.34713
9.34715
9.3472
9.3472
9.3472
9.3472
9.3472
9.3472
9.3472
9.3472
9.3472
9.3472
9.3472
9.3472
9.3472
9.3472
9.3472
9.34722
9.34722
9.3472
9.34721
9.3472
9.3472
9.3472
9.34721
9.3472
9.3472
9.34721
9.34721
9.34721
9.3472
9.3472
9.3472
9.3472
9.3472
9.3472
9.3472
9.34719
9.34718
9.34717
9.34717
9.34716
9.3471
9.3471
9.34706
9.34705
9.34707
9.34705
9.34703
9.34702
8.71798
8.718
8.71799
8.71802
8.71803
8.71806
8.71805
8.71803
8.71804
8.71805
8.7181
8.71812
8.71826
8.71832
8.71833
8.71833
8.71834
8.71834
8.71834
8.71834
8.71836
8.71838
8.71838
8.71838
8.71839
8.7184
8.7184
8.7184
8.71839
8.71835
8.7184
8.71843
8.71844
8.71844
8.71845
8.71844
8.71844
8.71844
8.71845
8.71846
8.71846
8.71846
8.71847
8.71846
8.71846
8.71845
8.71845
8.71846
8.71846
8.71845
8.71842
8.71837
8.71826
8.71825
8.71821
8.71819
8.71823
8.71815
8.71817
8.71814
8.16597
8.16599
8.16599
8.16601
8.166
8.16609
8.16604
8.16603
8.16604
8.16605
8.16609
8.16611
8.16636
8.16642
8.16643
8.16645
8.16645
8.16645
8.16648
8.16644
8.16648
8.1665
8.16651
8.16653
8.16654
8.16656
8.16657
8.16659
8.1666
8.16655
8.16663
8.16666
8.16668
8.1667
8.16673
8.16675
8.16677
8.16678
8.16678
8.1668
8.16682
8.16683
8.16684
8.16684
8.16685
8.16686
8.16686
8.16687
8.16686
8.16684
8.16681
8.16663
8.16656
8.16654
8.16653
8.16652
8.16656
8.16647
8.16648
8.16646
7.67791
7.67792
7.67793
7.67794
7.67794
7.67801
7.67801
7.67797
7.67798
7.67798
7.67802
7.67808
7.67834
7.67842
7.67844
7.67846
7.67847
7.6785
7.67845
7.67834
7.67847
7.67853
7.67854
7.67857
7.67861
7.67863
7.67866
7.67868
7.6787
7.67865
7.67875
7.67881
7.67884
7.67888
7.67892
7.67896
7.679
7.67903
7.67907
7.67909
7.67913
7.67915
7.67916
7.67919
7.6792
7.67921
7.67923
7.67924
7.67925
7.67923
7.67912
7.67894
7.67885
7.67887
7.67887
7.67889
7.67887
7.6788
7.6788
7.67878
7.24347
7.24348
7.24349
7.24351
7.24351
7.24356
7.24359
7.24353
7.24354
7.24354
7.24358
7.24364
7.24389
7.24402
7.24405
7.24406
7.24408
7.24407
7.24388
7.24383
7.24405
7.24414
7.24417
7.2442
7.24423
7.24426
7.2443
7.24434
7.24437
7.24432
7.24446
7.24454
7.2446
7.24466
7.24471
7.24477
7.24483
7.24489
7.24494
7.24499
7.24504
7.24509
7.24511
7.24514
7.24517
7.2452
7.24522
7.24523
7.24525
7.24518
7.24496
7.24486
7.24479
7.24483
7.24485
7.2449
7.24484
7.24477
7.24477
7.24475
6.85442
6.85443
6.85443
6.85444
6.85444
6.85449
6.85453
6.85448
6.85446
6.85446
6.85447
6.85451
6.85463
6.85492
6.855
6.85502
6.85504
6.85496
6.85475
6.85474
6.85499
6.85509
6.85512
6.85515
6.85519
6.85524
6.85529
6.85534
6.85537
6.85535
6.8555
6.8556
6.85569
6.85577
6.85585
6.85593
6.85602
6.8561
6.85617
6.85623
6.8563
6.85635
6.85641
6.85646
6.85649
6.85653
6.85656
6.85659
6.8566
6.85648
6.85626
6.85616
6.85613
6.85619
6.85624
6.85623
6.85618
6.85612
6.85612
6.85611
6.50409
6.5041
6.50409
6.50411
6.5041
6.50414
6.50418
6.50417
6.50413
6.50412
6.50411
6.50412
6.50423
6.5045
6.50465
6.50469
6.50468
6.50442
6.50433
6.50437
6.50463
6.50473
6.50476
6.5048
6.50485
6.5049
6.50495
6.50502
6.50508
6.50505
6.50523
6.50536
6.50546
6.50557
6.50568
6.50578
6.50589
6.506
6.50609
6.50619
6.50627
6.50635
6.50642
6.50647
6.50654
6.50658
6.50662
6.50665
6.5066
6.50636
6.50625
6.50618
6.50619
6.50627
6.50629
6.50628
6.50624
6.50619
6.5062
6.50618
6.18706
6.18706
6.18706
6.18707
6.18706
6.18709
6.18713
6.18713
6.18709
6.18706
6.18704
6.18701
6.18707
6.18722
6.18752
6.18763
6.18759
6.18729
6.18723
6.18727
6.18754
6.18764
6.18767
6.18771
6.18776
6.18782
6.18789
6.18796
6.18802
6.18802
6.18823
6.18837
6.18851
6.18864
6.18877
6.18891
6.18904
6.18917
6.18929
6.18941
6.18953
6.18961
6.1897
6.18979
6.18986
6.18991
6.18996
6.18999
6.18988
6.18965
6.18955
6.18952
6.18958
6.18962
6.18963
6.18963
6.18959
6.18954
6.18955
6.18953
5.89885
5.89885
5.89885
5.89885
5.89885
5.89887
5.8989
5.89889
5.89889
5.89884
5.8988
5.89876
5.89879
5.8989
5.89926
5.89938
5.89927
5.89899
5.89895
5.89898
5.89926
5.89935
5.89938
5.89942
5.89947
5.89954
5.89961
5.8997
5.89978
5.89978
5.90001
5.90018
5.90034
5.9005
5.90067
5.90083
5.90099
5.90116
5.90131
5.90144
5.90158
5.90171
5.9018
5.9019
5.90198
5.90206
5.90211
5.90207
5.90183
5.90173
5.90167
5.90171
5.90174
5.90178
5.90179
5.90179
5.90177
5.90172
5.90172
5.90171
5.63576
5.63576
5.63575
5.63576
5.63575
5.63577
5.6358
5.63578
5.63577
5.63575
5.63569
5.63563
5.63566
5.63577
5.63607
5.63619
5.63593
5.63578
5.63576
5.6358
5.63606
5.63616
5.63619
5.63622
5.63627
5.63634
5.63643
5.63652
5.63661
5.63663
5.63689
5.63708
5.63726
5.63746
5.63765
5.63785
5.63805
5.63824
5.63843
5.63859
5.63874
5.63888
5.63902
5.63913
5.63923
5.63931
5.63936
5.6393
5.63905
5.63896
5.63896
5.63898
5.63901
5.63905
5.63906
5.63907
5.63904
5.639
5.639
5.639
5.39468
5.39469
5.39468
5.39468
5.39468
5.39469
5.3947
5.39468
5.39466
5.39464
5.39461
5.39452
5.39449
5.39456
5.39469
5.39494
5.3947
5.3946
5.39458
5.39461
5.39482
5.39494
5.39498
5.39501
5.39506
5.39513
5.39521
5.39532
5.39542
5.39546
5.39573
5.39596
5.39617
5.3964
5.39663
5.39686
5.3971
5.39732
5.39753
5.39774
5.39791
5.39808
5.39823
5.39836
5.39847
5.39855
5.39854
5.39842
5.39828
5.39822
5.39823
5.39826
5.39829
5.39833
5.39834
5.39835
5.39832
5.39828
5.39829
5.39828
5.173
5.173
5.173
5.173
5.17298
5.173
5.173
5.17299
5.17296
5.17293
5.17289
5.17282
5.17276
5.17277
5.17287
5.17308
5.17291
5.17282
5.17277
5.17278
5.17284
5.17306
5.17313
5.17316
5.1732
5.17327
5.17336
5.17347
5.17358
5.17365
5.17395
5.1742
5.17445
5.17471
5.17498
5.17525
5.17551
5.17578
5.17602
5.17625
5.17647
5.17665
5.17682
5.17698
5.17709
5.17715
5.17704
5.177
5.17693
5.17688
5.17689
5.17693
5.17695
5.17699
5.177
5.17701
5.17698
5.17695
5.17696
5.17695
4.96849
4.9685
4.96849
4.96849
4.96848
4.96848
4.96848
4.96846
4.96843
4.96839
4.96835
4.96828
4.96821
4.96815
4.96816
4.96821
4.96823
4.9682
4.96814
4.96812
4.96812
4.96837
4.96844
4.96846
4.96849
4.96855
4.96864
4.96876
4.96889
4.96897
4.9693
4.96958
4.96986
4.97016
4.97047
4.97079
4.97109
4.97139
4.97168
4.97195
4.97219
4.97241
4.9726
4.97276
4.97287
4.9729
4.97281
4.97282
4.97274
4.9727
4.97272
4.97276
4.97279
4.97282
4.97283
4.97283
4.97281
4.97278
4.97278
4.97277
4.77926
4.77928
4.77927
4.77926
4.77924
4.77924
4.77924
4.77921
4.77918
4.77914
4.77908
4.77901
4.77894
4.77887
4.77881
4.77883
4.77889
4.77885
4.77878
4.77873
4.77872
4.77895
4.779
4.77901
4.77903
4.77908
4.77917
4.77929
4.77943
4.77953
4.77988
4.7802
4.78052
4.78086
4.78122
4.78158
4.78194
4.78228
4.78261
4.78291
4.78318
4.78343
4.78363
4.7838
4.78386
4.78385
4.78387
4.78388
4.78383
4.78381
4.78382
4.78385
4.78388
4.78391
4.78392
4.78393
4.7839
4.78388
4.78388
4.78386
4.60369
4.6037
4.60369
4.60368
4.60366
4.60366
4.60365
4.60362
4.60358
4.60353
4.60348
4.60339
4.60331
4.60323
4.60317
4.60317
4.60321
4.60315
4.60305
4.60299
4.60295
4.60315
4.60319
4.60317
4.60317
4.60322
4.6033
4.60343
4.60357
4.60369
4.60407
4.60442
4.60479
4.60518
4.60559
4.606
4.60641
4.6068
4.60717
4.60752
4.60782
4.60809
4.60831
4.60845
4.60843
4.6085
4.60855
4.60858
4.60855
4.60853
4.60857
4.60859
4.60861
4.60864
4.60865
4.60865
4.60862
4.6086
4.6086
4.60859
4.44036
4.44036
4.44035
4.44034
4.44032
4.44032
4.44031
4.44027
4.44023
4.44017
4.44011
4.44002
4.43993
4.43984
4.43977
4.43975
4.43976
4.43969
4.43956
4.43947
4.43941
4.43952
4.43958
4.43954
4.43952
4.43955
4.43963
4.43975
4.4399
4.44004
4.44044
4.44084
4.44125
4.4417
4.44216
4.44264
4.4431
4.44356
4.44397
4.44435
4.44469
4.44499
4.44523
4.44534
4.44535
4.44542
4.44548
4.44548
4.44547
4.44549
4.44553
4.44555
4.44557
4.4456
4.4456
4.4456
4.44557
4.44555
4.44555
4.44553
4.28804
4.28805
4.28804
4.28802
4.28801
4.288
4.28798
4.28794
4.2879
4.28784
4.28777
4.28767
4.28758
4.28747
4.28738
4.28734
4.28734
4.28723
4.28709
4.28694
4.28684
4.28679
4.28692
4.2869
4.28686
4.28686
4.28692
4.28704
4.2872
4.28736
4.28779
4.28823
4.2887
4.2892
4.28974
4.29028
4.29081
4.29131
4.29178
4.29221
4.29259
4.2929
4.29308
4.29317
4.29327
4.29337
4.29345
4.29344
4.29344
4.29348
4.2935
4.29353
4.29354
4.29356
4.29356
4.29355
4.29352
4.2935
4.2935
4.29348
4.14569
4.14569
4.14568
4.14567
4.14565
4.14564
4.14562
4.14557
4.14553
4.14546
4.14539
4.14528
4.14518
4.14507
4.14495
4.14489
4.14487
4.14475
4.14456
4.14438
4.14422
4.1441
4.14422
4.14418
4.14411
4.14408
4.14412
4.14422
4.14438
4.14456
4.14503
4.14552
4.14605
4.14662
4.14724
4.14785
4.14846
4.14903
4.14956
4.15003
4.15043
4.15073
4.15083
4.151
4.15115
4.15128
4.15135
4.15135
4.15136
4.15139
4.15142
4.15144
4.15144
4.15146
4.15146
4.15144
4.15141
4.15138
4.15137
4.15137
4.01236
4.01236
4.01235
4.01234
4.01232
4.0123
4.01228
4.01224
4.01218
4.01212
4.01204
4.01193
4.01181
4.01168
4.01155
4.01147
4.01141
4.01126
4.01106
4.01084
4.01063
4.01047
4.01049
4.01044
4.01034
4.01027
4.01028
4.01036
4.01053
4.01072
4.01122
4.01176
4.01237
4.01303
4.01373
4.01444
4.01513
4.01577
4.01635
4.01686
4.01729
4.01759
4.01772
4.01791
4.01809
4.01821
4.01824
4.01826
4.01829
4.01833
4.01835
4.01835
4.01836
4.01836
4.01835
4.01833
4.0183
4.01827
4.01826
4.01825
3.88723
3.88723
3.88722
3.88721
3.88718
3.88717
3.88715
3.8871
3.88705
3.88697
3.88689
3.88677
3.88665
3.88651
3.88637
3.88625
3.88615
3.88599
3.88576
3.8855
3.88522
3.88499
3.88482
3.88483
3.88472
3.88461
3.88457
3.88463
3.88479
3.885
3.88554
3.88615
3.88683
3.8876
3.8884
3.88922
3.89
3.89072
3.89134
3.89185
3.89228
3.89257
3.89281
3.89303
3.89323
3.89333
3.89336
3.89338
3.89342
3.89345
3.89346
3.89346
3.89345
3.89345
3.89343
3.8934
3.89337
3.89333
3.89333
3.89332
3.76958
3.76958
3.76957
3.76956
3.76953
3.76952
3.7695
3.76945
3.76939
3.76932
3.76923
3.76911
3.76898
3.76883
3.76866
3.76848
3.76834
3.76818
3.76793
3.76763
3.7673
3.76698
3.76672
3.7667
3.76654
3.76638
3.76629
3.76631
3.76644
3.76666
3.76724
3.76792
3.76872
3.76959
3.77053
3.77147
3.77236
3.77315
3.77382
3.77437
3.77476
3.7751
3.77541
3.77566
3.77583
3.7759
3.77593
3.77598
3.77602
3.77604
3.77604
3.77602
3.77601
3.77599
3.77596
3.77593
3.77589
3.77586
3.77584
3.77583
3.65876
3.65876
3.65876
3.65874
3.65872
3.6587
3.65868
3.65864
3.65858
3.6585
3.65841
3.65829
3.65816
3.658
3.65781
3.6576
3.65743
3.65725
3.65696
3.6566
3.65622
3.65583
3.65548
3.65535
3.65517
3.65495
3.65479
3.65475
3.65485
3.65507
3.65569
3.65646
3.65737
3.65839
3.65947
3.66057
3.66158
3.66244
3.66317
3.66377
3.66418
3.66456
3.66489
3.66513
3.66528
3.66533
3.66537
3.66542
3.66544
3.66544
3.66543
3.6654
3.66538
3.66535
3.66531
3.66527
3.66523
3.66519
3.66517
3.66516
3.55421
3.55421
3.5542
3.55419
3.55417
3.55415
3.55413
3.55409
3.55403
3.55396
3.55387
3.55374
3.55361
3.55344
3.55324
3.55302
3.55281
3.55259
3.55227
3.55187
3.55141
3.55093
3.55048
3.55019
3.55013
3.54983
3.54957
3.54944
3.54947
3.54967
3.55033
3.5512
3.55224
3.55343
3.55469
3.55598
3.5571
3.55804
3.55877
3.5594
3.5599
3.56032
3.56064
3.56085
3.56096
3.56102
3.56107
3.56111
3.56112
3.5611
3.56107
3.56103
3.56099
3.56095
3.5609
3.56085
3.56081
3.56077
3.56074
3.56073
3.45541
3.45541
3.45541
3.45539
3.45537
3.45536
3.45534
3.4553
3.45525
3.45518
3.45509
3.45497
3.45483
3.45466
3.45445
3.45421
3.45394
3.45366
3.45334
3.45291
3.45238
3.4518
3.45123
3.45102
3.49883
3.49854
3.49819
3.49797
3.49795
3.49813
3.49881
3.49975
3.50089
3.50218
3.50356
3.50493
3.45895
3.45951
3.46027
3.46092
3.46146
3.46187
3.46217
3.46232
3.46241
3.46248
3.46253
3.46254
3.46253
3.4625
3.46245
3.46239
3.46233
3.46228
3.46222
3.46217
3.46212
3.46207
3.46204
3.46203
3.36191
3.36191
3.3619
3.3619
3.36188
3.36186
3.36185
3.36181
3.36176
3.3617
3.36161
3.36149
3.36136
3.36119
3.36098
3.36072
3.36042
3.36009
3.35973
3.3593
3.35871
3.35803
3.35748
3.40261
3.40091
3.40055
3.40003
3.39964
3.3995
3.39966
3.40043
3.40153
3.40288
3.40441
3.40602
3.40749
3.41076
3.36685
3.36722
3.36786
3.36838
3.36876
3.36901
3.36913
3.3692
3.36926
3.36928
3.36927
3.36923
3.36917
3.36911
3.36903
3.36895
3.36889
3.36882
3.36875
3.36869
3.36865
3.36862
3.3686
3.2733
3.27329
3.27329
3.27328
3.27327
3.27326
3.27325
3.27322
3.27317
3.27311
3.27304
3.27292
3.27279
3.27263
3.27243
3.27217
3.27186
3.2715
3.27111
3.27065
3.27004
3.26929
3.26877
3.31013
3.30853
3.33041
3.32986
3.32929
3.32899
3.32907
3.32987
3.33104
3.33254
3.33426
3.33606
3.31579
3.31876
3.27903
3.27913
3.27974
3.28022
3.28055
3.28073
3.28083
3.2809
3.28093
3.28092
3.28087
3.2808
3.28072
3.28063
3.28053
3.28044
3.28036
3.28028
3.2802
3.28013
3.28008
3.28005
3.28003
3.1892
3.18919
3.18919
3.18919
3.18918
3.18917
3.18917
3.18914
3.18911
3.18905
3.18898
3.18888
3.18876
3.18861
3.18842
3.18817
3.18787
3.1875
3.18707
3.18658
3.18598
3.18526
3.18484
3.22272
3.22139
3.2411
3.24077
3.24002
3.23947
3.23942
3.24011
3.24133
3.24302
3.24501
3.24695
3.2294
3.23164
3.19591
3.19569
3.19622
3.19662
3.19686
3.197
3.19708
3.19712
3.19711
3.19706
3.19698
3.19688
3.19677
3.19665
3.19653
3.19642
3.19632
3.19623
3.19615
3.19607
3.19601
3.19598
3.19596
3.10928
3.10928
3.10928
3.10928
3.10927
3.10928
3.10927
3.10925
3.10923
3.10918
3.10913
3.10904
3.10893
3.10879
3.10862
3.10839
3.10811
3.10776
3.10733
3.10682
3.10626
3.10563
3.10541
3.14027
3.13933
3.15707
3.15733
3.15677
3.15642
3.1564
3.15672
3.15745
3.15884
3.16075
3.16276
3.1477
3.14929
3.11717
3.11657
3.11695
3.11724
3.11741
3.11751
3.11755
3.11754
3.11747
3.11738
3.11726
3.11712
3.11698
3.11683
3.1167
3.11656
3.11645
3.11635
3.11625
3.11617
3.1161
3.11607
3.11604
3.03325
3.03325
3.03325
3.03325
3.03325
3.03326
3.03326
3.03325
3.03323
3.0332
3.03316
3.03309
3.033
3.03288
3.03273
3.03253
3.03228
3.03197
3.03159
3.03113
3.03063
3.03014
3.03024
3.06259
3.06246
3.07865
3.07995
3.08158
3.08459
3.08743
3.08619
3.08302
3.08164
3.08216
3.08355
3.07072
3.07155
3.04247
3.04147
3.04163
3.04181
3.04192
3.04196
3.04192
3.04183
3.04171
3.04156
3.0414
3.04123
3.04105
3.04088
3.04072
3.04057
3.04044
3.04032
3.04021
3.04012
3.04005
3.04001
3.03999
2.96082
2.96083
2.96083
2.96084
2.96084
2.96085
2.96086
2.96086
2.96085
2.96083
2.9608
2.96075
2.96068
2.96059
2.96046
2.9603
2.9601
2.95986
2.95956
2.9592
2.95886
2.95858
2.95911
2.98955
2.99094
3.00612
3.0117
3.02329
3.05052
3.08437
3.06701
3.03133
3.01535
3.01058
3.00969
2.9982
2.99826
2.97153
2.9702
2.9701
2.97012
2.9701
2.97002
2.96989
2.96973
2.96954
2.96934
2.96913
2.96892
2.96871
2.96851
2.96833
2.96815
2.96801
2.96787
2.96776
2.96766
2.96759
2.96754
2.96752
2.89176
2.89176
2.89177
2.89178
2.89179
2.89181
2.89182
2.89183
2.89184
2.89183
2.89182
2.89178
2.89173
2.89166
2.89157
2.89146
2.89132
2.89116
2.89097
2.89076
2.89065
2.89072
2.89178
2.92086
2.92468
2.9409
2.95785
3.01352
3.24778
3.91251
3.53686
3.0602
2.96985
2.94853
2.94214
2.92996
2.9293
2.90409
2.90249
2.90207
2.90185
2.90166
2.90145
2.90122
2.90097
2.90071
2.90045
2.90019
2.89994
2.8997
2.89948
2.89927
2.89908
2.89892
2.89877
2.89865
2.89854
2.89846
2.89841
2.89839
2.82583
2.82583
2.82584
2.82586
2.82587
2.8259
2.82592
2.82594
2.82595
2.82596
2.82596
2.82595
2.82592
2.82588
2.82583
2.82576
2.8257
2.82562
2.82556
2.82553
2.82571
2.82622
2.82799
2.85627
2.86295
2.88382
2.92471
3.18575
30.8243
470.933
169.482
4.71248
2.95579
2.89975
2.88198
2.86563
2.86441
2.84001
2.83805
2.83725
2.83674
2.83636
2.836
2.83565
2.83532
2.83499
2.83467
2.83436
2.83407
2.8338
2.83355
2.83331
2.83311
2.83293
2.83278
2.83264
2.83253
2.83244
2.83239
2.83237
2.76283
2.76283
2.76284
2.76286
2.76288
2.76291
2.76294
2.76297
2.763
2.76302
2.76303
2.76303
2.76303
2.76302
2.76301
2.763
2.76301
2.76303
2.7631
2.76326
2.76374
2.76471
2.76719
2.79524
2.80486
2.83257
2.90533
4.6355
148.942
962.808
343.54
15.5908
3.01378
2.87038
2.82931
2.80531
2.80338
2.77889
2.77653
2.77534
2.77453
2.77393
2.77342
2.77296
2.77254
2.77213
2.77176
2.77141
2.77108
2.77078
2.7705
2.77026
2.77003
2.76984
2.76968
2.76954
2.76942
2.76933
2.76927
2.76925
2.70256
2.70257
2.70258
2.7026
2.70263
2.70266
2.7027
2.70274
2.70278
2.70281
2.70284
2.70285
2.70287
2.70289
2.70292
2.70297
2.70304
2.70316
2.70335
2.7037
2.70445
2.70581
2.70889
2.73691
2.74854
2.78182
2.87937
5.95551
242.212
210.408
3.79826
2.87658
2.78487
2.74853
2.74535
2.72041
2.7176
2.71606
2.71495
2.71414
2.71348
2.71291
2.71241
2.71194
2.71152
2.71113
2.71077
2.71045
2.71015
2.70989
2.70965
2.70945
2.70928
2.70914
2.70902
2.70893
2.70887
2.70885
2.64486
2.64486
2.64488
2.64491
2.64494
2.64498
2.64503
2.64507
2.64512
2.64516
2.6452
2.64523
2.64527
2.64531
2.64538
2.64548
2.64562
2.64581
2.64611
2.64661
2.64756
2.64918
2.65289
2.68058
2.69315
2.72785
2.83866
6.37754
174.391
960.484
120.242
4.64439
2.91412
2.7465
2.6953
2.68943
2.66447
2.66107
2.65925
2.65788
2.65687
2.65607
2.6554
2.65482
2.6543
2.65383
2.6534
2.65302
2.65267
2.65236
2.65208
2.65183
2.65162
2.65144
2.65129
2.65117
2.65107
2.65102
2.651
2.58956
2.58957
2.58959
2.58962
2.58965
2.5897
2.58975
2.58981
2.58986
2.58991
2.58996
2.59
2.59006
2.59013
2.59023
2.59037
2.59056
2.59081
2.59119
2.59179
2.59285
2.59461
2.59913
2.62636
2.6395
2.67099
2.77718
6.76457
162.889
426.975
215.854
60.3988
4.72608
2.92172
2.70541
2.64479
2.63477
2.61072
2.60668
2.60463
2.6031
2.60189
2.60097
2.60022
2.59957
2.59901
2.5985
2.59804
2.59764
2.59727
2.59694
2.59665
2.59639
2.59617
2.59599
2.59583
2.5957
2.59561
2.59555
2.59553
2.53652
2.53653
2.53655
2.53658
2.53662
2.53667
2.53674
2.53679
2.53685
2.53691
2.53697
2.53703
2.5371
2.53719
2.53732
2.53749
2.5377
2.53798
2.5384
2.53905
2.54012
2.54196
2.54757
2.57438
2.58799
2.62106
2.74472
7.0113
178.903
286.193
113.588
36.6033
4.59708
2.88161
2.6546
2.5953
2.58109
2.55885
2.55424
2.55201
2.5504
2.54903
2.54803
2.54721
2.54652
2.54591
2.54538
2.5449
2.54447
2.54409
2.54375
2.54345
2.54318
2.54296
2.54277
2.54261
2.54248
2.54238
2.54232
2.5423
2.48561
2.48561
2.48564
2.48567
2.48572
2.48577
2.48584
2.4859
2.48597
2.48603
2.4861
2.48616
2.48625
2.48636
2.4865
2.48667
2.48688
2.48713
2.48756
2.48826
2.48935
2.49126
2.49821
2.5248
2.53877
2.59031
2.77301
6.47622
133.384
191.984
118.185
26.4126
4.65343
2.80879
2.59606
2.54557
2.52872
2.50856
2.50363
2.50124
2.49964
2.49816
2.49709
2.49623
2.4955
2.49488
2.49432
2.49383
2.49339
2.493
2.49265
2.49234
2.49208
2.49185
2.49166
2.49149
2.49136
2.49126
2.4912
2.49118
2.43669
2.4367
2.43672
2.43676
2.43681
2.43687
2.43694
2.43701
2.43708
2.43714
2.43722
2.43729
2.43739
2.4375
2.43763
2.43777
2.43795
2.43823
2.43868
2.4394
2.44045
2.4425
2.45062
2.4771
2.49416
2.57794
2.80839
5.61676
64.7684
133.647
97.2587
25.4739
4.54636
2.71721
2.53657
2.49551
2.47817
2.4597
2.45478
2.45222
2.45067
2.44911
2.44802
2.44715
2.44642
2.44578
2.44522
2.44472
2.44427
2.44388
2.44353
2.44321
2.44294
2.44272
2.44252
2.44236
2.44223
2.44212
2.44206
2.44204
2.38966
2.38967
2.3897
2.38974
2.38979
2.38985
2.38992
2.39
2.39007
2.39014
2.39022
2.3903
2.39038
2.39046
2.39058
2.39074
2.39095
2.39124
2.39167
2.39238
2.39334
2.39558
2.40427
2.43073
2.45639
2.56693
2.84224
5.79374
46.977
120.248
89.6586
32.0296
4.90067
2.64143
2.48005
2.44707
2.4296
2.41199
2.40755
2.40485
2.40335
2.40177
2.40069
2.39986
2.39914
2.39851
2.39795
2.39745
2.397
2.39661
2.39626
2.39595
2.39568
2.39545
2.39525
2.39509
2.39496
2.39486
2.3948
2.39478
2.34441
2.34442
2.34444
2.34449
2.34454
2.34461
2.34469
2.34476
2.34483
2.34491
2.34497
2.34505
2.34512
2.34521
2.34536
2.34553
2.34574
2.346
2.3464
2.34707
2.34794
2.35037
2.35888
2.3855
2.42378
2.54644
2.9229
10.9854
73.5018
112.541
88.4298
53.197
7.54816
2.59929
2.4294
2.40008
2.38321
2.36574
2.36191
2.35914
2.35769
2.35615
2.35508
2.35425
2.35356
2.35295
2.35241
2.35192
2.35148
2.35109
2.35074
2.35043
2.35017
2.34994
2.34975
2.34958
2.34945
2.34935
2.34929
2.34927
2.30083
2.30084
2.30087
2.30092
2.30097
2.30105
2.30112
2.3012
2.30127
2.30133
2.30138
2.30145
2.30155
2.30168
2.30184
2.302
2.30219
2.30243
2.3028
2.30341
2.30421
2.30674
2.3148
2.34171
2.39099
2.532
3.189
19.1537
74.7961
97.8045
82.6648
58.6186
12.4569
2.61455
2.38879
2.35456
2.33854
2.32099
2.31781
2.31515
2.3136
2.31212
2.31109
2.31027
2.30958
2.309
2.30849
2.30803
2.3076
2.30722
2.30688
2.30658
2.30632
2.30609
2.3059
2.30574
2.30562
2.30552
2.30546
2.30544
2.25885
2.25886
2.25889
2.25893
2.25899
2.25907
2.25915
2.25922
2.25929
2.25933
2.25939
2.25948
2.2596
2.25974
2.2599
2.26006
2.26024
2.26045
2.26077
2.26133
2.26208
2.2646
2.27243
2.29972
2.35399
2.54208
4.50904
25.5836
68.3072
81.8503
73.7418
56.2605
15.2552
3.19476
2.35432
2.31112
2.29527
2.27789
2.27512
2.27274
2.27109
2.2696
2.26863
2.26785
2.26718
2.26661
2.26612
2.26569
2.26529
2.26492
2.26459
2.2643
2.26404
2.26382
2.26364
2.26348
2.26336
2.26326
2.2632
2.26319
2.21837
2.21837
2.21841
2.21846
2.21852
2.21859
2.21867
2.21874
2.21879
2.21884
2.21893
2.21903
2.21917
2.21932
2.21947
2.21963
2.21979
2.21998
2.22027
2.22076
2.22152
2.22392
2.23203
2.25952
2.3167
2.56386
6.58746
26.9686
59.6609
70.0771
64.7101
49.2719
14.6987
5.22772
2.31714
2.27048
2.2533
2.23658
2.23379
2.23177
2.23006
2.2286
2.2276
2.22688
2.22625
2.2257
2.22523
2.22482
2.22445
2.2241
2.22379
2.2235
2.22325
2.22304
2.22286
2.22271
2.22259
2.2225
2.22244
2.22243
2.17931
2.17931
2.17935
2.1794
2.17947
2.17954
2.1796
2.17966
2.17972
2.1798
2.1799
2.18002
2.18016
2.18031
2.18047
2.18062
2.18078
2.18095
2.18122
2.18169
2.18243
2.18467
2.19354
2.22083
2.28269
2.57974
7.62815
24.7942
50.616
59.2658
54.4268
40.3796
12.3945
7.76523
2.27653
2.23189
2.21269
2.19704
2.19383
2.19216
2.19041
2.18902
2.18804
2.1873
2.18668
2.18615
2.18573
2.18535
2.185
2.18469
2.18439
2.18412
2.18388
2.18368
2.1835
2.18336
2.18324
2.18315
2.18309
2.18308
2.1416
2.14161
2.14164
2.1417
2.14176
2.14182
2.14188
2.14195
2.14203
2.14212
2.14223
2.14235
2.1425
2.14266
2.14283
2.14298
2.14313
2.14328
2.14353
2.14403
2.14474
2.14689
2.15666
2.18352
2.25024
2.59117
7.62697
21.7737
42.2797
48.6236
44.5007
32.3059
10.042
9.31121
2.23467
2.19454
2.17357
2.1591
2.15523
2.15384
2.15209
2.15077
2.14983
2.14911
2.14851
2.148
2.14757
2.14722
2.14689
2.14659
2.14633
2.14608
2.14585
2.14566
2.14549
2.14535
2.14523
2.14515
2.14509
2.14508
2.10517
2.10518
2.10522
2.10527
2.10532
2.10538
2.10546
2.10554
2.10563
2.10572
2.10584
2.10597
2.10613
2.1063
2.10647
2.10663
2.10677
2.1069
2.10718
2.10769
2.10837
2.11051
2.12103
2.14739
2.21719
2.60424
7.09304
18.8028
35.1294
39.4409
36.1101
26.1219
8.17995
9.60118
2.19378
2.15838
2.136
2.12255
2.11794
2.11675
2.11504
2.11378
2.11288
2.11219
2.11162
2.11115
2.11071
2.11035
2.11006
2.10978
2.10953
2.1093
2.10909
2.10891
2.10875
2.10861
2.10851
2.10842
2.10837
2.10836
2.06996
2.06997
2.07
2.07005
2.07011
2.07018
2.07027
2.07035
2.07044
2.07055
2.07067
2.07081
2.07098
2.07116
2.07134
2.07149
2.07162
2.07178
2.07209
2.07261
2.07327
2.07543
2.08639
2.11221
2.18317
2.62147
6.36188
16.3513
29.2799
32.0765
29.4501
21.5797
6.88554
9.18326
2.15509
2.12379
2.0999
2.08716
2.08191
2.08083
2.0792
2.07799
2.07714
2.07648
2.07594
2.0755
2.07509
2.07473
2.07442
2.07418
2.07394
2.07373
2.07355
2.07338
2.07322
2.0731
2.07299
2.07291
2.07286
2.07286
2.03591
2.03591
2.03595
2.03599
2.03606
2.03614
2.03623
2.03632
2.03642
2.03653
2.03666
2.03681
2.03698
2.03718
2.03737
2.03753
2.03767
2.03786
2.03819
2.0387
2.03939
2.04156
2.05262
2.07778
2.14875
2.63062
5.61377
14.8269
24.6283
26.2628
24.2338
18.2791
6.03401
8.5402
2.11939
2.091
2.06512
2.05276
2.04707
2.04604
2.04451
2.04337
2.04255
2.04192
2.04142
2.041
2.04062
2.04028
2.03998
2.03972
2.03951
2.03932
2.03914
2.03899
2.03885
2.03873
2.03863
2.03856
2.03851
2.03851
2.00296
2.00296
2.00299
2.00304
2.00311
2.0032
2.00329
2.00339
2.00349
2.00361
2.00375
2.00391
2.0041
2.0043
2.00449
2.00465
2.00483
2.00505
2.00539
2.00592
2.00666
2.00878
2.01971
2.04406
2.11429
2.63425
4.94203
14.2202
21.0183
21.6737
20.1531
15.8528
5.49539
7.92231
2.08742
2.05983
2.03148
2.01924
2.01335
2.01235
2.01092
2.00984
2.00907
2.00847
2.00799
2.0076
2.00725
2.00694
2.00665
2.0064
2.00618
2.00601
2.00585
2.00571
2.00558
2.00547
2.00538
2.00531
2.00526
2.00526
1.97105
1.97105
1.97108
1.97114
1.97121
1.9713
1.9714
1.9715
1.97161
1.97174
1.97188
1.97206
1.97225
1.97246
1.97267
1.97284
1.97305
1.97329
1.97365
1.9742
1.97501
1.97704
1.9877
2.01114
2.08065
2.63763
4.38295
13.449
18.2275
18.054
16.9642
14.0201
5.17436
7.41707
2.06006
2.02975
1.99881
1.98655
1.98067
1.9797
1.97839
1.97737
1.97664
1.97607
1.97563
1.97526
1.97493
1.97463
1.97437
1.97413
1.97392
1.97374
1.9736
1.97347
1.97336
1.97326
1.97317
1.9731
1.97306
1.97306
1.94014
1.94014
1.94018
1.94024
1.94031
1.9404
1.94051
1.94061
1.94073
1.94086
1.94102
1.9412
1.94141
1.94162
1.94182
1.94203
1.94227
1.94253
1.94292
1.94348
1.94437
1.94627
1.95665
1.97916
2.04783
2.6383
3.93839
12.6815
16.0448
15.207
14.4768
12.56
5.00583
7.01799
2.03833
2.00014
1.96701
1.95471
1.94899
1.94808
1.94687
1.9459
1.94522
1.94468
1.94426
1.94392
1.94361
1.94334
1.94309
1.94287
1.94267
1.94249
1.94235
1.94224
1.94214
1.94205
1.94197
1.94191
1.94186
1.94187
1.91019
1.91019
1.91023
1.91028
1.91036
1.91046
1.91056
1.91068
1.9108
1.91094
1.9111
1.91129
1.91151
1.91171
1.91194
1.91218
1.91244
1.91272
1.91313
1.9137
1.91468
1.91643
1.92662
1.94827
2.01603
2.63624
3.59282
12.0504
14.333
13.57
13.442
11.3174
4.94458
6.68961
2.02336
1.97053
1.93601
1.92374
1.91826
1.91743
1.91631
1.9154
1.91477
1.91426
1.91386
1.91354
1.91325
1.913
1.91277
1.91257
1.91238
1.91222
1.91207
1.91195
1.91187
1.91179
1.91172
1.91166
1.91162
1.91163
1.88114
1.88114
1.88118
1.88124
1.88132
1.88142
1.88153
1.88165
1.88178
1.88192
1.8821
1.88229
1.88251
1.88273
1.88298
1.88323
1.88351
1.88381
1.88423
1.88482
1.88587
1.88747
1.89761
1.9186
1.98481
2.63206
3.3267
11.6036
13.0059
13.3351
12.9278
10.2155
4.95704
6.39783
2.01652
1.94075
1.90578
1.8937
1.88845
1.88772
1.88668
1.88583
1.88523
1.88475
1.88438
1.88409
1.88382
1.88358
1.88337
1.88318
1.88301
1.88285
1.88272
1.8826
1.88251
1.88244
1.88238
1.88233
1.8823
1.8823
1.85296
1.85296
1.853
1.85306
1.85314
1.85325
1.85336
1.85348
1.85362
1.85377
1.85395
1.85415
1.85436
1.8546
1.85488
1.85515
1.85543
1.85575
1.85619
1.85678
1.85789
1.85938
1.86959
1.89009
1.95419
2.62582
3.12468
11.3578
12.0041
13.1634
12.402
9.23547
5.03545
6.12672
2.01975
1.91091
1.87633
1.86464
1.85954
1.8589
1.85794
1.85714
1.85658
1.85613
1.85579
1.85551
1.85526
1.85504
1.85485
1.85467
1.85451
1.85436
1.85424
1.85413
1.85403
1.85396
1.85391
1.85387
1.85384
1.85385
1.8256
1.82561
1.82565
1.82571
1.8258
1.8259
1.82602
1.82614
1.82628
1.82644
1.82663
1.82683
1.82705
1.82731
1.82759
1.82787
1.82817
1.8285
1.82895
1.82955
1.8307
1.83209
1.84251
1.86253
1.92423
3.19909
3.26426
11.8847
11.7543
12.8008
11.137
8.04566
4.91697
6.31875
1.96987
1.88101
1.8476
1.83653
1.8315
1.83096
1.83006
1.82931
1.82878
1.82836
1.82804
1.82778
1.82755
1.82734
1.82716
1.82699
1.82685
1.82671
1.82659
1.82649
1.82641
1.82633
1.82628
1.82625
1.82623
1.82623
1.79904
1.79904
1.79909
1.79915
1.79924
1.79935
1.79946
1.79959
1.79974
1.7999
1.80009
1.80029
1.80053
1.8008
1.80109
1.80138
1.80169
1.80202
1.80249
1.80308
1.80424
1.80556
1.8161
1.83014
1.89488
3.18274
3.41126
11.6209
11.4701
12.3321
10.4192
7.68178
5.07963
6.05295
2.0041
1.85153
1.80719
1.8093
1.80433
1.80386
1.80301
1.8023
1.8018
1.80139
1.80109
1.80086
1.80064
1.80045
1.80028
1.80012
1.79999
1.79986
1.79975
1.79966
1.79958
1.79951
1.79945
1.79942
1.79941
1.79941
1.77323
1.77324
1.77328
1.77335
1.77344
1.77355
1.77367
1.7738
1.77395
1.77412
1.7743
1.77451
1.77476
1.77504
1.77533
1.77563
1.77595
1.77629
1.77675
1.77733
1.77849
1.77974
1.79052
1.80415
1.94245
3.48909
5.39809
10.834
11.4089
11.2698
8.4718
6.80967
5.07031
5.32313
2.01467
1.79684
1.78098
1.78292
1.77798
1.77756
1.77675
1.77607
1.77559
1.77521
1.77493
1.77471
1.7745
1.77433
1.77417
1.77402
1.7739
1.77378
1.77368
1.77359
1.77352
1.77345
1.7734
1.77337
1.77336
1.77336
1.74815
1.74816
1.74821
1.74827
1.74836
1.74847
1.74859
1.74873
1.74888
1.74905
1.74923
1.74945
1.74971
1.74999
1.75029
1.75059
1.75092
1.75126
1.75172
1.75229
1.75341
1.75461
1.76564
1.77879
1.92196
3.44967
6.02782
10.3675
11.0519
10.7389
7.97312
6.6852
5.10882
5.25759
2.09466
1.77223
1.7555
1.75735
1.7524
1.75202
1.75124
1.75059
1.75013
1.74977
1.74951
1.7493
1.74911
1.74894
1.7488
1.74866
1.74854
1.74844
1.74834
1.74826
1.74819
1.74813
1.74808
1.74805
1.74803
1.74804
1.72376
1.72378
1.72382
1.72389
1.72398
1.72409
1.72421
1.72435
1.72451
1.72467
1.72486
1.72509
1.72535
1.72563
1.72594
1.72624
1.72656
1.72691
1.72736
1.72791
1.729
1.73015
1.74137
1.75401
1.90243
3.42495
6.56511
10.0489
10.7407
10.2755
7.54246
6.55272
5.10837
5.18776
2.17019
1.74849
1.73078
1.73254
1.72754
1.7272
1.72645
1.72583
1.72539
1.72505
1.7248
1.7246
1.72442
1.72427
1.72413
1.72401
1.7239
1.7238
1.72371
1.72363
1.72357
1.72351
1.72347
1.72344
1.72342
1.72343
1.70004
1.70006
1.7001
1.70017
1.70026
1.70037
1.7005
1.70064
1.70079
1.70095
1.70115
1.70138
1.70165
1.70193
1.70224
1.70254
1.70286
1.7032
1.70365
1.70418
1.70522
1.70632
1.71766
1.72986
1.88377
3.41553
7.03413
9.82988
10.4626
9.86866
7.20592
6.42413
5.08228
5.1131
2.2431
1.72573
1.70676
1.70843
1.70337
1.70307
1.70235
1.70176
1.70133
1.70101
1.70077
1.70059
1.70042
1.70028
1.70015
1.70003
1.69993
1.69983
1.69975
1.69968
1.69962
1.69957
1.69953
1.6995
1.69948
1.69948
1.67696
1.67697
1.67702
1.67709
1.67718
1.67729
1.67742
1.67756
1.67771
1.67787
1.67807
1.67831
1.67858
1.67886
1.67916
1.67947
1.67979
1.68012
1.68056
1.68107
1.68206
1.68312
1.69451
1.70634
1.8659
3.4229
7.45253
9.68133
10.2112
9.50944
7.04026
6.30564
5.03955
5.03393
2.31367
1.70409
1.68339
1.68498
1.67987
1.6796
1.67891
1.67835
1.67793
1.67763
1.6774
1.67723
1.67707
1.67693
1.67682
1.67671
1.67661
1.67652
1.67644
1.67638
1.67632
1.67627
1.67623
1.67621
1.67619
1.67619
1.65449
1.6545
1.65455
1.65462
1.65471