/*--------------------------------*- C++ -*----------------------------------*\
  =========                 |
  \\      /  F ield         | OpenFOAM: The Open Source CFD Toolbox
   \\    /   O peration     | Website:  https://openfoam.org
    \\  /    A nd           | Version:  12
     \\/     M anipulation  |
\*---------------------------------------------------------------------------*/
FoamFile
{
    format      ascii;
    class       volScalarField;
    location    "20";
    object      p;
}
// * * * * * * * * * * * * * * * * * * * * * * * * * * * * * * * * * * * * * //

dimensions      [0 2 -2 0 0 0 0];

internalField   nonuniform List<scalar> 
16227
(
0.393151
0.392918
0.392452
0.391749
0.390809
0.389627
0.388201
0.386525
0.384595
0.382405
0.379949
0.377221
0.374215
0.370924
0.367345
0.36347
0.359297
0.354819
0.350036
0.344945
0.339547
0.333843
0.32784
0.321544
0.314965
0.308117
0.301014
0.293676
0.286124
0.278383
0.270481
0.262451
0.254323
0.246132
0.237914
0.229704
0.221541
0.213461
0.205499
0.197691
0.190071
0.182669
0.175516
0.168639
0.162062
0.155809
0.149899
0.14435
0.139179
0.1344
0.130023
0.126061
0.12252
0.11941
0.116735
0.114499
0.112706
0.11136
0.110462
0.110013
0.393333
0.3931
0.392635
0.391934
0.390995
0.389817
0.388393
0.386721
0.384794
0.382608
0.380157
0.377433
0.374431
0.371144
0.367568
0.363697
0.359525
0.35505
0.350267
0.345175
0.339774
0.334067
0.328058
0.321754
0.315165
0.308304
0.301187
0.293832
0.286261
0.278499
0.270574
0.26252
0.254366
0.246148
0.237903
0.229665
0.221475
0.213367
0.20538
0.197547
0.189904
0.18248
0.175307
0.168411
0.161818
0.155549
0.149626
0.144066
0.138885
0.134096
0.129713
0.125743
0.122198
0.119084
0.116405
0.114167
0.112372
0.111024
0.110125
0.109675
0.39371
0.393478
0.393014
0.392317
0.391383
0.39021
0.388793
0.387128
0.38521
0.383033
0.380591
0.377877
0.374884
0.371606
0.368039
0.364175
0.360009
0.355538
0.350757
0.345665
0.340259
0.334544
0.328523
0.322204
0.315595
0.308709
0.301561
0.294172
0.286561
0.278754
0.27078
0.262673
0.254465
0.24619
0.237886
0.22959
0.22134
0.213175
0.205132
0.197246
0.189552
0.182081
0.174864
0.167929
0.161299
0.154999
0.149047
0.143462
0.138259
0.133452
0.129052
0.125069
0.121514
0.118391
0.115705
0.11346
0.111661
0.110309
0.109408
0.108956
0.394308
0.394077
0.393617
0.392926
0.392
0.390836
0.389431
0.387779
0.385875
0.383713
0.381287
0.378589
0.375611
0.37235
0.368796
0.364945
0.36079
0.356327
0.351551
0.346459
0.341047
0.335321
0.329283
0.322939
0.316298
0.309373
0.302177
0.294731
0.287055
0.279175
0.271123
0.262931
0.254633
0.246264
0.237864
0.229472
0.221126
0.212867
0.204732
0.196759
0.188982
0.181435
0.174148
0.167148
0.16046
0.154107
0.14811
0.142484
0.137246
0.132409
0.127984
0.12398
0.120408
0.11727
0.114572
0.112318
0.110511
0.109154
0.108248
0.107795
0.395126
0.394898
0.394443
0.39376
0.392845
0.391695
0.390306
0.388672
0.386788
0.384648
0.382244
0.379569
0.376616
0.373376
0.369844
0.366011
0.361873
0.357422
0.352654
0.347562
0.342143
0.336403
0.330342
0.323966
0.317282
0.310301
0.303039
0.295515
0.287749
0.279768
0.271604
0.263293
0.254869
0.24637
0.237836
0.229308
0.220828
0.212437
0.204175
0.19608
0.18819
0.180536
0.173151
0.166062
0.159294
0.15287
0.146809
0.141129
0.135843
0.130965
0.126505
0.122476
0.118879
0.115722
0.113008
0.110741
0.108924
0.107559
0.106648
0.106192
0.396163
0.395939
0.395491
0.394818
0.393918
0.392787
0.391419
0.389809
0.387951
0.385839
0.383464
0.380819
0.377899
0.374689
0.371184
0.367377
0.363261
0.358829
0.354071
0.348979
0.343554
0.337798
0.33171
0.325293
0.318554
0.311504
0.304157
0.296531
0.28865
0.280537
0.27223
0.263765
0.255178
0.246508
0.237799
0.229095
0.220441
0.21188
0.203453
0.195202
0.187165
0.179375
0.171865
0.164662
0.157793
0.151279
0.145139
0.139389
0.134044
0.129116
0.124615
0.12055
0.116925
0.113743
0.111009
0.108726
0.106897
0.105523
0.104607
0.104147
0.397412
0.397192
0.396753
0.396095
0.395213
0.394104
0.392763
0.391183
0.389358
0.387281
0.384945
0.382339
0.379456
0.376286
0.372818
0.369044
0.364957
0.36055
0.355806
0.350721
0.345291
0.339518
0.333399
0.326934
0.32013
0.312996
0.305546
0.297797
0.289773
0.281499
0.273013
0.264356
0.255566
0.246684
0.237758
0.228836
0.219964
0.211191
0.202561
0.194117
0.185898
0.177941
0.170279
0.162938
0.155946
0.149323
0.143088
0.137256
0.13184
0.126852
0.122304
0.118198
0.114538
0.111328
0.108571
0.10627
0.104427
0.103043
0.102119
0.101656
0.398866
0.398651
0.398224
0.397582
0.396722
0.395641
0.394332
0.392789
0.391005
0.388972
0.386682
0.384124
0.381289
0.378169
0.374747
0.371016
0.366968
0.36259
0.357869
0.352796
0.347366
0.341577
0.335424
0.328907
0.322029
0.314798
0.307226
0.299332
0.291138
0.282671
0.273971
0.265082
0.256044
0.246905
0.237716
0.228528
0.219393
0.210364
0.201489
0.192812
0.184378
0.176222
0.168379
0.160876
0.153739
0.14699
0.140644
0.134717
0.12922
0.124166
0.119563
0.115411
0.111712
0.10847
0.105687
0.103366
0.101507
0.100113
0.0991816
0.098715
0.400518
0.40031
0.399896
0.399274
0.398441
0.397392
0.396121
0.394623
0.392887
0.390907
0.388673
0.386174
0.383399
0.380337
0.376972
0.373296
0.369298
0.364961
0.360271
0.355218
0.349793
0.343992
0.337806
0.331232
0.324273
0.316932
0.309223
0.301161
0.292769
0.284074
0.27512
0.265955
0.256624
0.247178
0.237673
0.228168
0.218721
0.209388
0.200223
0.191273
0.182586
0.174198
0.166145
0.158456
0.151155
0.144261
0.137791
0.131757
0.126171
0.121047
0.116382
0.112178
0.108436
0.10516
0.10235
0.100008
0.0981338
0.0967277
0.0957893
0.095319
0.402362
0.402162
0.401764
0.401165
0.400363
0.399352
0.398127
0.39668
0.395002
0.393084
0.390917
0.388488
0.385784
0.382793
0.3795
0.375891
0.371956
0.367671
0.363024
0.358002
0.352591
0.346783
0.340566
0.333936
0.326889
0.319429
0.311565
0.303312
0.294692
0.285733
0.276483
0.266994
0.257316
0.247507
0.237631
0.227753
0.217938
0.20825
0.198745
0.189479
0.180499
0.171847
0.163557
0.155656
0.14817
0.141116
0.13451
0.128361
0.122681
0.117478
0.112748
0.108488
0.104702
0.10139
0.0985528
0.0961897
0.0943001
0.0928831
0.0919375
0.0914636
0.404392
0.404202
0.403821
0.403249
0.402483
0.401516
0.400343
0.398955
0.397344
0.3955
0.39341
0.391064
0.388444
0.385539
0.382336
0.378808
0.374947
0.37073
0.366142
0.361164
0.35578
0.349973
0.343732
0.337046
0.329911
0.322322
0.314288
0.305821
0.296941
0.28768
0.278086
0.26822
0.258136
0.247902
0.23759
0.227275
0.217031
0.206929
0.197033
0.187405
0.178093
0.169141
0.160583
0.15245
0.14476
0.137532
0.130778
0.124508
0.118733
0.113446
0.108645
0.10433
0.100499
0.097152
0.094288
0.0919047
0.0900006
0.0885732
0.0876212
0.0871441
0.406601
0.406421
0.406061
0.40552
0.404794
0.403878
0.402764
0.401445
0.399911
0.39815
0.396151
0.3939
0.391382
0.38858
0.385478
0.382052
0.378283
0.374152
0.36964
0.364724
0.359383
0.353589
0.347332
0.340598
0.333374
0.325652
0.317434
0.30873
0.299559
0.289952
0.279963
0.269658
0.259102
0.248371
0.23755
0.226725
0.215982
0.205402
0.195059
0.185017
0.175331
0.166045
0.157193
0.148804
0.140895
0.133482
0.126573
0.120181
0.114303
0.10893
0.10406
0.0996887
0.0958149
0.0924359
0.0895476
0.0871465
0.0852294
0.0837933
0.0828357
0.0823559
0.40898
0.408811
0.408475
0.407969
0.40729
0.406431
0.405385
0.404145
0.402698
0.401033
0.399138
0.396998
0.394596
0.391914
0.388933
0.385631
0.381977
0.377953
0.373538
0.368704
0.363423
0.357661
0.351405
0.344633
0.337324
0.329465
0.321053
0.312091
0.302595
0.292596
0.282152
0.271341
0.260234
0.248923
0.237507
0.226089
0.214768
0.203639
0.192785
0.182277
0.172173
0.162517
0.153345
0.144681
0.13654
0.128934
0.121871
0.115352
0.109369
0.103912
0.0989752
0.094553
0.090641
0.0872333
0.0843244
0.0819087
0.0799817
0.0785391
0.0775774
0.0770957
0.41152
0.411365
0.411055
0.410588
0.409962
0.409168
0.4082
0.407048
0.4057
0.404145
0.402369
0.400356
0.398088
0.395546
0.392707
0.389548
0.386032
0.382142
0.37785
0.373125
0.367929
0.362224
0.355991
0.349196
0.341813
0.33382
0.325205
0.315965
0.306111
0.295669
0.284705
0.273306
0.261558
0.249569
0.237458
0.225348
0.213359
0.2016
0.190166
0.179134
0.168567
0.158509
0.148993
0.140037
0.131654
0.123855
0.116641
0.109995
0.10391
0.0983739
0.0933765
0.08891
0.0849661
0.0815361
0.0786121
0.0761868
0.0742536
0.0728074
0.0718439
0.0713614
0.414211
0.41407
0.41379
0.413368
0.412801
0.41208
0.411199
0.410147
0.408912
0.407482
0.40584
0.403972
0.401857
0.399475
0.396802
0.393809
0.390462
0.386733
0.382594
0.378008
0.372931
0.367317
0.361134
0.354341
0.346902
0.338784
0.329964
0.320429
0.310181
0.299243
0.287684
0.275603
0.263106
0.25032
0.237395
0.224478
0.211714
0.199233
0.187142
0.175527
0.164452
0.15396
0.144079
0.134822
0.126196
0.11821
0.110844
0.104078
0.0979005
0.092295
0.0872483
0.082747
0.0787804
0.0753368
0.072405
0.0699763
0.0680425
0.0665968
0.0656341
0.0651522
0.417037
0.416914
0.416667
0.416295
0.415793
0.415155
0.414371
0.413431
0.412323
0.411033
0.409544
0.40784
0.4059
0.403703
0.40122
0.398424
0.395275
0.391741
0.387789
0.383378
0.378459
0.372979
0.366882
0.360125
0.352658
0.344435
0.335418
0.325577
0.314904
0.30341
0.291169
0.278296
0.264917
0.251194
0.237307
0.223444
0.20978
0.19647
0.183638
0.171377
0.159751
0.148799
0.138541
0.128983
0.120124
0.111954
0.104444
0.0975698
0.0913157
0.0856564
0.080574
0.0760517
0.0720748
0.0686284
0.0656988
0.0632748
0.0613467
0.0599063
0.058948
0.0584683
0.419984
0.419879
0.419669
0.419352
0.418923
0.418376
0.4177
0.416886
0.41592
0.414786
0.41347
0.411951
0.41021
0.408223
0.405961
0.403393
0.400478
0.397178
0.393455
0.389263
0.384548
0.379253
0.373289
0.366612
0.359159
0.350866
0.341672
0.331528
0.3204
0.308289
0.295267
0.281468
0.267046
0.252207
0.237179
0.2222
0.207486
0.193224
0.179558
0.166587
0.154372
0.142941
0.132301
0.122454
0.113381
0.105041
0.0974041
0.0904421
0.0841303
0.0784374
0.0733384
0.0688128
0.0648411
0.0614054
0.0584897
0.0560802
0.0541659
0.0527368
0.0517865
0.0513111
0.423031
0.422947
0.422777
0.42252
0.422172
0.421725
0.421169
0.420493
0.419684
0.418726
0.417601
0.416291
0.414774
0.413026
0.411016
0.408713
0.406073
0.403052
0.399609
0.395691
0.391238
0.386179
0.380413
0.373875
0.366491
0.35818
0.348853
0.338424
0.326828
0.314036
0.300118
0.285228
0.269562
0.253383
0.236988
0.220679
0.204733
0.189377
0.174778
0.161037
0.148204
0.136291
0.125283
0.115172
0.1059
0.0974162
0.0896824
0.0826641
0.0763222
0.0706206
0.0655289
0.0610204
0.0570727
0.0536641
0.0507761
0.0483926
0.0465009
0.0450903
0.0441526
0.043684
0.426156
0.426094
0.425968
0.425777
0.425517
0.42518
0.424755
0.424232
0.423596
0.422832
0.421921
0.420843
0.419577
0.418097
0.416374
0.414375
0.412055
0.409364
0.406258
0.40268
0.398559
0.39381
0.388325
0.381998
0.37475
0.366493
0.357104
0.346443
0.334384
0.320852
0.305905
0.289721
0.272554
0.254747
0.236695
0.218788
0.201381
0.184766
0.169131
0.154571
0.141114
0.128738
0.117403
0.107052
0.0976168
0.0890304
0.0812423
0.0742068
0.0678697
0.0621905
0.0571332
0.0526672
0.0487652
0.0454025
0.0425579
0.040214
0.0383556
0.0369709
0.0360512
0.0355916
0.429334
0.429296
0.429218
0.4291
0.428935
0.428717
0.428436
0.428079
0.427634
0.427082
0.426407
0.425586
0.424599
0.423419
0.422018
0.420364
0.418411
0.416107
0.413404
0.41024
0.406535
0.402191
0.397089
0.391062
0.384032
0.375927
0.366592
0.355802
0.343327
0.329009
0.312874
0.295135
0.276128
0.256318
0.236227
0.216371
0.197228
0.179167
0.162402
0.147001
0.132941
0.120156
0.108551
0.0980177
0.0884742
0.0798411
0.0720518
0.0650421
0.0587521
0.0531328
0.0481435
0.0437487
0.0399175
0.036622
0.0338393
0.0315491
0.0297359
0.0283857
0.0274898
0.027042
0.43254
0.432527
0.432502
0.432461
0.4324
0.432312
0.432186
0.432011
0.431772
0.431453
0.431035
0.430497
0.429816
0.428968
0.427924
0.426654
0.42512
0.423264
0.421037
0.418379
0.415201
0.411385
0.406771
0.40114
0.394409
0.386601
0.377515
0.366796
0.354033
0.33892
0.321419
0.301792
0.280503
0.258191
0.235557
0.213282
0.191985
0.172265
0.154311
0.138102
0.123512
0.110402
0.0986044
0.0879774
0.0784098
0.0698042
0.062079
0.0551511
0.0489564
0.0434402
0.0385566
0.0342654
0.0305325
0.0273282
0.0246268
0.022407
0.020651
0.0193452
0.0184788
0.018046
0.435745
0.43576
0.43579
0.435833
0.435885
0.435936
0.435978
0.435999
0.435984
0.435917
0.435778
0.435547
0.4352
0.434715
0.434064
0.433219
0.432148
0.4308
0.429128
0.427079
0.424565
0.421443
0.417491
0.412392
0.405869
0.398489
0.389963
0.379668
0.366878
0.351015
0.331928
0.309959
0.285785
0.260312
0.234484
0.209155
0.185205
0.163591
0.144476
0.127588
0.112623
0.0993223
0.0874624
0.0768617
0.0673761
0.0588887
0.0512988
0.0445185
0.0384756
0.0331108
0.0283741
0.0242223
0.0206185
0.0175309
0.0149319
0.0127996
0.0111149
0.00986276
0.00903259
0.00861837
0.43892
0.438966
0.439056
0.439189
0.43936
0.439562
0.439784
0.440015
0.440241
0.440445
0.440607
0.440707
0.440722
0.440628
0.440402
0.440018
0.439452
0.438666
0.437624
0.436292
0.434605
0.432421
0.429467
0.425045
0.418328
0.411584
0.404122
0.394825
0.382438
0.365936
0.344968
0.320024
0.292143
0.262648
0.232794
0.203485
0.175914
0.152433
0.132402
0.115133
0.100063
0.0867901
0.0750466
0.0646171
0.0553376
0.0470721
0.0397027
0.0331405
0.027311
0.0221501
0.0176053
0.0136307
0.0101882
0.00724438
0.00477087
0.00274383
0.00114434
-4.34296e-05
-0.000829972
-0.00122233
0.442037
0.442115
0.442269
0.442497
0.442796
0.443158
0.443573
0.444029
0.444512
0.445007
0.445492
0.445947
0.446348
0.446672
0.446898
0.447002
0.446969
0.446782
0.446425
0.445902
0.445218
0.44434
0.44297
0.439997
0.432682
0.426534
0.420771
0.41357
0.403062
0.38742
0.36567
0.338196
0.30642
0.272266
0.237526
0.203397
0.162586
0.137694
0.117573
0.100454
0.0856528
0.0727019
0.0612988
0.0512165
0.0422822
0.0343451
0.0272897
0.0210251
0.0154738
0.0105725
0.00626608
0.00250884
-0.000739104
-0.00351097
-0.00583623
-0.00773881
-0.00923835
-0.0103506
-0.0110868
-0.0114535
0.445063
0.445175
0.445396
0.445726
0.446161
0.446692
0.447312
0.448008
0.448766
0.44957
0.4504
0.451233
0.452044
0.452811
0.453511
0.454123
0.454635
0.455049
0.455385
0.455696
0.456093
0.456839
0.458247
0.453043
0.45307
0.451526
0.448806
0.445297
0.437561
0.422071
0.396778
0.362446
0.321786
0.278187
0.234449
0.193022
0.157837
0.11844
0.0996663
0.0834469
0.0693613
0.0570408
0.0462146
0.036665
0.0282155
0.0207245
0.0140799
0.00819224
0.00298689
-0.00159926
-0.00561961
-0.00911944
-0.0121381
-0.01471
-0.0168634
-0.0186226
-0.0200074
-0.0210331
-0.0217113
-0.0220493
0.447967
0.448114
0.448407
0.448844
0.449421
0.450132
0.450968
0.451918
0.452968
0.454102
0.455298
0.456532
0.457779
0.45901
0.460203
0.461333
0.462389
0.463374
0.464338
0.465385
0.466698
0.46867
0.472474
0.472197
0.475793
0.475815
0.476282
0.479586
0.478407
0.466272
0.438971
0.397209
0.346005
0.291026
0.236163
0.176291
0.138736
0.0972883
0.0792682
0.0642954
0.0512587
0.0398513
0.0298359
0.0210022
0.0131812
0.00625022
0.000110139
-0.00532247
-0.0101169
-0.0143324
-0.0180195
-0.0212222
-0.0239787
-0.026322
-0.0282803
-0.0298773
-0.0311324
-0.0320607
-0.0326739
-0.0329795
0.450714
0.450898
0.451265
0.451813
0.452541
0.45344
0.454505
0.455724
0.457083
0.458566
0.460152
0.461813
0.46352
0.465241
0.466944
0.4686
0.470185
0.471689
0.47316
0.474725
0.476607
0.479061
0.484163
0.487225
0.497185
0.509347
0.525364
0.544935
0.558543
0.553141
0.519189
0.458965
0.384349
0.306419
0.231406
0.155886
0.11666
0.0729779
0.0563959
0.0430833
0.0314384
0.021237
0.0122569
0.00430233
-0.0027563
-0.00901822
-0.014566
-0.01947
-0.0237918
-0.0275844
-0.0308941
-0.0337617
-0.0362235
-0.0383116
-0.0400523
-0.0414683
-0.0425792
-0.0433998
-0.043941
-0.0442109
0.453268
0.453491
0.453935
0.4546
0.455483
0.45658
0.457884
0.459386
0.461072
0.462926
0.464925
0.467041
0.46924
0.471481
0.473722
0.475916
0.47802
0.47999
0.481821
0.483607
0.485547
0.487604
0.492511
0.497848
0.512345
0.534131
0.571689
0.617809
0.660185
0.671628
0.627692
0.535854
0.425787
0.318977
0.223007
0.131849
0.0901919
0.0454768
0.0311172
0.019978
0.010091
0.00137202
-0.00638501
-0.0133147
-0.0194963
-0.0249963
-0.0298752
-0.0341869
-0.037982
-0.0413048
-0.0441964
-0.046694
-0.0488317
-0.0506381
-0.0521392
-0.0533574
-0.0543102
-0.0550124
-0.0554753
-0.0557056
0.455593
0.455855
0.456379
0.457163
0.458208
0.459511
0.461065
0.462863
0.464893
0.467139
0.469579
0.472182
0.47491
0.477713
0.480534
0.483303
0.485943
0.488357
0.490446
0.492178
0.493617
0.494308
0.497334
0.503494
0.519342
0.549554
0.612073
0.698723
0.799629
0.856025
0.791203
0.633431
0.465375
0.322416
0.205943
0.100516
0.0585207
0.014777
0.00361285
-0.00471712
-0.0124841
-0.0194987
-0.0258861
-0.0316868
-0.0369086
-0.0415782
-0.0457304
-0.0494001
-0.0526239
-0.0554376
-0.057876
-0.0599728
-0.0617575
-0.0632587
-0.0645001
-0.065503
-0.0662844
-0.0668585
-0.0672355
-0.0674232
0.45765
0.457952
0.458557
0.459464
0.460676
0.462189
0.464002
0.466108
0.468499
0.471159
0.474068
0.477196
0.4805
0.483923
0.487391
0.490808
0.494054
0.496969
0.499321
0.500872
0.501415
0.49991
0.499364
0.504153
0.51629
0.547858
0.625594
0.756877
0.974332
1.17383
1.04718
0.730537
0.475435
0.299105
0.170087
0.0588016
0.0211052
-0.0186088
-0.0255254
-0.0304603
-0.0358536
-0.0410344
-0.0459911
-0.0506189
-0.0548433
-0.0586492
-0.0620417
-0.0650362
-0.0676553
-0.0699273
-0.0718821
-0.0735486
-0.0749557
-0.0761282
-0.0770904
-0.0778612
-0.0784584
-0.0788937
-0.079179
-0.07932
0.459399
0.459742
0.460429
0.461461
0.462841
0.46457
0.466648
0.469072
0.471837
0.474933
0.478342
0.482036
0.485973
0.490091
0.494303
0.498487
0.502484
0.506071
0.508881
0.510416
0.510103
0.506182
0.501142
0.502054
0.505101
0.523722
0.58083
0.696313
1.06379
1.8307
1.40122
0.701935
0.388887
0.221227
0.108064
0.0070485
-0.0205893
-0.0530503
-0.0550996
-0.0563792
-0.0594036
-0.0628231
-0.066421
-0.069918
-0.073162
-0.0761041
-0.0787251
-0.0810232
-0.0830123
-0.0847155
-0.0861583
-0.087369
-0.0883736
-0.0891967
-0.0898605
-0.0903844
-0.0907841
-0.0910723
-0.0912586
-0.0913506
0.4608
0.461184
0.461952
0.463109
0.464658
0.466603
0.468949
0.471698
0.474849
0.478398
0.482335
0.486638
0.491271
0.496172
0.501254
0.506379
0.511359
0.515932
0.519633
0.521724
0.521279
0.515846
0.507311
0.503373
0.496173
0.490831
0.481713
0.388027
0.281526
2.2848
0.411511
0.241265
0.149126
0.0835252
0.0268646
-0.0482218
-0.0619317
-0.0856896
-0.083325
-0.0813788
-0.0824869
-0.0844757
-0.0869255
-0.0894084
-0.0917334
-0.0938389
-0.0956932
-0.0972849
-0.0986263
-0.099738
-0.100646
-0.101377
-0.101957
-0.102411
-0.102759
-0.103021
-0.103212
-0.103344
-0.103426
-0.103466
0.461814
0.462238
0.463086
0.464364
0.466079
0.468238
0.47085
0.473923
0.477465
0.481479
0.485966
0.490916
0.496304
0.502085
0.508178
0.514454
0.520718
0.52672
0.531982
0.535642
0.53657
0.531868
0.523339
0.517317
0.509904
0.492548
0.449887
0.141725
-1.62564
-10.7801
-10.5285
-0.0205459
-0.178983
-0.0647596
-0.0428879
-0.092392
-0.0951743
-0.112938
-0.10828
-0.104409
-0.10452
-0.105644
-0.107275
-0.108926
-0.110434
-0.111758
-0.112866
-0.113751
-0.114432
-0.114933
-0.115285
-0.115514
-0.11565
-0.115715
-0.115732
-0.115719
-0.11569
-0.115657
-0.11563
-0.115615
0.462402
0.462863
0.463788
0.465182
0.467056
0.469421
0.472291
0.475683
0.479611
0.484092
0.489139
0.49476
0.500951
0.507691
0.514932
0.522577
0.530459
0.538395
0.546004
0.552476
0.556727
0.55586
0.552306
0.550072
0.559954
0.56728
0.622176
0.498107
-1.07585
0.277574
-0.609106
-0.118554
-0.0517258
-0.10795
-0.112697
-0.132151
-0.128687
-0.12484
-0.125195
-0.126165
-0.127365
-0.128396
-0.129204
-0.129806
-0.130188
-0.130367
-0.130374
-0.130245
-0.130018
-0.129724
-0.129394
-0.129053
-0.128723
-0.128422
-0.128163
-0.127959
-0.127818
-0.127746
0.462526
0.463023
0.464018
0.465519
0.467541
0.470098
0.473212
0.476906
0.481205
0.486139
0.491738
0.498032
0.505046
0.512795
0.521284
0.530473
0.540259
0.550572
0.561236
0.571683
0.581103
0.586942
0.59266
0.599136
0.63543
0.686039
0.901291
1.4414
1.79469
41.3661
-0.549053
-0.135208
0.106694
0.0290971
-0.0912399
-0.113949
-0.14357
-0.144863
-0.143011
-0.144782
-0.14622
-0.147305
-0.147879
-0.148071
-0.147983
-0.147641
-0.147096
-0.146405
-0.145622
-0.14479
-0.14395
-0.143133
-0.142367
-0.141675
-0.141073
-0.140576
-0.140193
-0.139933
-0.139801
0.462153
0.46268
0.463738
0.465335
0.467489
0.470219
0.473553
0.477523
0.482164
0.48752
0.49364
0.500579
0.508395
0.517152
0.526914
0.537731
0.549585
0.562562
0.576749
0.591961
0.607747
0.621963
0.639219
0.655386
0.709158
0.766682
0.935256
1.46167
3.86682
25.3362
21.1612
6.28645
1.35882
0.455206
0.122027
-0.0663818
-0.109446
-0.151257
-0.159109
-0.160342
-0.164132
-0.166313
-0.167388
-0.167544
-0.167126
-0.166328
-0.165224
-0.163915
-0.162487
-0.161012
-0.159545
-0.15813
-0.156805
-0.155596
-0.154528
-0.153614
-0.152869
-0.152301
-0.151917
-0.151725
0.461251
0.461805
0.462915
0.464593
0.466859
0.469737
0.47326
0.477469
0.482409
0.488137
0.494721
0.502241
0.510793
0.520487
0.531461
0.543868
0.557798
0.573496
0.591297
0.611452
0.633872
0.656738
0.686403
0.711798
0.773354
0.809246
0.775227
0.290113
-2.88659
9.84451
19.4027
5.02419
1.39428
0.41013
0.0836454
-0.0693661
-0.115225
-0.16168
-0.175086
-0.178998
-0.1845
-0.187177
-0.188043
-0.187641
-0.186503
-0.184898
-0.182947
-0.180802
-0.178579
-0.176364
-0.174223
-0.172204
-0.170346
-0.168677
-0.167217
-0.165981
-0.16498
-0.164221
-0.163711
-0.163456
0.459795
0.460369
0.46152
0.463262
0.465616
0.468611
0.472285
0.476685
0.481865
0.487896
0.49486
0.502863
0.512031
0.522524
0.534546
0.548366
0.564173
0.582349
0.603426
0.628064
0.656607
0.687706
0.730592
0.768544
0.84724
0.896434
0.859463
0.517495
-0.184994
1.74598
11.3538
1.9015
-0.153793
-0.143659
-0.130682
-0.11877
-0.142213
-0.180533
-0.196332
-0.201146
-0.20716
-0.209571
-0.209722
-0.208432
-0.20634
-0.20375
-0.200813
-0.197728
-0.194631
-0.191618
-0.188758
-0.186103
-0.183688
-0.181541
-0.179677
-0.178109
-0.176846
-0.175893
-0.175253
-0.174933
0.457765
0.458353
0.459532
0.461317
0.463732
0.466808
0.470587
0.47512
0.480469
0.486713
0.493949
0.502299
0.511918
0.523003
0.535811
0.550716
0.567991
0.588129
0.611817
0.640034
0.673637
0.712024
0.767742
0.82192
0.930308
1.03337
1.16122
1.20712
0.461095
-4.44252
-3.56086
-2.98609
-1.75595
-0.784803
-0.407607
-0.205314
-0.192209
-0.210767
-0.224959
-0.228218
-0.232998
-0.234039
-0.232753
-0.230101
-0.22672
-0.222896
-0.218794
-0.214641
-0.210578
-0.206701
-0.203077
-0.199753
-0.196759
-0.194116
-0.191838
-0.189932
-0.188402
-0.18725
-0.18648
-0.186095
0.455146
0.45574
0.456934
0.45874
0.461185
0.464302
0.468134
0.472736
0.478173
0.484528
0.491907
0.500442
0.510309
0.521723
0.534973
0.550515
0.568707
0.590105
0.615437
0.645919
0.682823
0.726456
0.791299
0.859446
0.991992
1.15865
1.5232
2.08166
1.51757
-0.61818
-8.23927
-4.22113
-1.68307
-0.996413
-0.600246
-0.310969
-0.260201
-0.252564
-0.26127
-0.260563
-0.262264
-0.260744
-0.257229
-0.252676
-0.247617
-0.24228
-0.236812
-0.231453
-0.226329
-0.221524
-0.217092
-0.213069
-0.209476
-0.206328
-0.203628
-0.201378
-0.19958
-0.19823
-0.197328
-0.196877
0.451931
0.452525
0.453718
0.455523
0.457966
0.461082
0.464912
0.469513
0.47495
0.481307
0.48869
0.497234
0.507117
0.518567
0.531883
0.547562
0.565996
0.587773
0.613573
0.644653
0.68246
0.728098
0.795261
0.868708
1.00449
1.21352
1.74099
2.58075
9.59891
26.952
21.1973
2.86507
-0.909352
-0.864157
-0.674347
-0.424444
-0.341857
-0.304138
-0.304148
-0.29759
-0.294608
-0.289449
-0.282949
-0.275983
-0.268869
-0.261747
-0.254724
-0.248032
-0.241763
-0.235974
-0.230699
-0.225956
-0.221755
-0.218094
-0.214971
-0.212379
-0.210313
-0.208765
-0.207734
-0.207219
0.448121
0.448708
0.449884
0.451665
0.454075
0.457145
0.460919
0.465448
0.470797
0.477044
0.484291
0.492664
0.502336
0.513531
0.526511
0.541789
0.559747
0.580962
0.605979
0.635881
0.671945
0.715782
0.777651
0.845679
0.962667
1.17181
1.69005
2.59078
15.8674
54.8023
53.7755
10.8061
-0.418598
-0.775965
-0.72216
-0.540121
-0.432529
-0.363438
-0.351779
-0.337886
-0.329087
-0.319543
-0.309477
-0.29965
-0.290172
-0.281047
-0.272322
-0.264202
-0.256727
-0.249918
-0.243782
-0.238312
-0.2335
-0.229331
-0.22579
-0.222861
-0.220533
-0.218793
-0.217635
-0.217056
0.443724
0.444295
0.445441
0.447176
0.449519
0.452504
0.456168
0.460558
0.465732
0.47176
0.478735
0.486774
0.496027
0.506684
0.518954
0.533326
0.550133
0.569895
0.592957
0.620085
0.652135
0.691122
0.741931
0.796738
0.882257
1.05176
1.40329
2.05222
15.0516
56.1688
57.1376
11.3456
-0.611225
-0.907738
-0.828006
-0.656687
-0.526087
-0.426827
-0.401838
-0.379839
-0.364447
-0.350089
-0.336141
-0.323176
-0.311108
-0.299834
-0.289332
-0.279744
-0.271042
-0.263206
-0.256212
-0.250025
-0.244616
-0.239951
-0.236005
-0.232752
-0.230172
-0.228249
-0.22697
-0.226331
0.438754
0.439304
0.440406
0.442072
0.444321
0.44718
0.450684
0.454872
0.459793
0.465508
0.472096
0.479652
0.488295
0.498178
0.509429
0.522486
0.537595
0.55518
0.575378
0.598602
0.625193
0.657479
0.693956
0.732496
0.780978
0.877684
0.989415
1.14771
10.5206
40.6043
40.0499
6.8159
-1.27968
-1.20933
-0.994119
-0.770576
-0.616633
-0.490377
-0.451696
-0.421572
-0.399404
-0.38002
-0.362084
-0.345911
-0.331197
-0.317743
-0.305447
-0.29441
-0.284509
-0.275677
-0.267855
-0.260981
-0.255002
-0.249869
-0.245541
-0.241983
-0.239167
-0.237071
-0.235679
-0.234984
0.433233
0.433755
0.4348
0.436379
0.438507
0.441207
0.444506
0.448438
0.453041
0.458364
0.464466
0.471418
0.479304
0.488234
0.498248
0.509708
0.522748
0.537684
0.554442
0.573152
0.593636
0.618515
0.640096
0.662839
0.67736
0.699563
0.625234
0.391343
5.392
22.3518
20.2647
1.6432
-1.96516
-1.53507
-1.17124
-0.872006
-0.697832
-0.550424
-0.498992
-0.46125
-0.432598
-0.408343
-0.386453
-0.367159
-0.349899
-0.334363
-0.320362
-0.307946
-0.296922
-0.287165
-0.278575
-0.271066
-0.264563
-0.259
-0.254322
-0.250486
-0.247456
-0.245203
-0.243709
-0.242963
0.42719
0.427678
0.428656
0.430131
0.432115
0.434625
0.437684
0.441317
0.44555
0.450418
0.45596
0.462221
0.469251
0.477116
0.485765
0.49548
0.506272
0.518334
0.531408
0.545425
0.559813
0.577601
0.586213
0.596641
0.589793
0.565469
0.418366
0.0494871
1.81232
8.96601
5.94791
-1.89654
-2.34805
-1.75835
-1.30628
-0.949931
-0.763873
-0.603444
-0.541566
-0.4973
-0.462788
-0.434059
-0.408519
-0.386317
-0.3667
-0.349265
-0.333752
-0.320117
-0.308089
-0.297512
-0.288245
-0.280175
-0.273208
-0.267266
-0.262282
-0.258201
-0.254983
-0.252593
-0.251009
-0.250219
0.420657
0.421108
0.42201
0.423367
0.425189
0.427487
0.430279
0.433578
0.437403
0.441772
0.446707
0.452225
0.458344
0.465091
0.472333
0.480273
0.488796
0.497974
0.507385
0.516869
0.525667
0.537447
0.536648
0.540091
0.527958
0.491354
0.362838
0.0567503
0.109001
1.79307
-1.09794
-3.38535
-2.40257
-1.83458
-1.37247
-0.997286
-0.811001
-0.646665
-0.577479
-0.528269
-0.488875
-0.456281
-0.427549
-0.40283
-0.381202
-0.362167
-0.345366
-0.330715
-0.317847
-0.30658
-0.296748
-0.288211
-0.280859
-0.2746
-0.269359
-0.265075
-0.261699
-0.259195
-0.257537
-0.25671
0.413673
0.414083
0.414902
0.416132
0.417778
0.419849
0.422353
0.425298
0.42869
0.432536
0.436838
0.441592
0.446785
0.452414
0.458273
0.464494
0.47085
0.477298
0.483267
0.488631
0.492678
0.499919
0.49374
0.495518
0.490785
0.46541
0.396172
0.244473
-0.237139
-0.921418
-3.31945
-3.51411
-2.25668
-1.7896
-1.37141
-1.01298
-0.837808
-0.678228
-0.60525
-0.552939
-0.509903
-0.474272
-0.442989
-0.416272
-0.393067
-0.372796
-0.355012
-0.339573
-0.326062
-0.314263
-0.303993
-0.295098
-0.287448
-0.280945
-0.275505
-0.271062
-0.267564
-0.264971
-0.263254
-0.262398
0.406279
0.406646
0.407378
0.408474
0.409937
0.41177
0.413976
0.416555
0.419505
0.422818
0.426484
0.430476
0.434758
0.439304
0.443852
0.448475
0.452849
0.456825
0.45974
0.4616
0.461897
0.466092
0.45809
0.462059
0.471141
0.466617
0.459666
0.464105
0.040542
-1.38047
-3.31667
-3.08246
-2.03255
-1.67211
-1.31997
-1.0006
-0.84488
-0.697097
-0.623805
-0.570369
-0.525114
-0.487455
-0.454413
-0.426336
-0.402064
-0.380966
-0.36253
-0.346577
-0.332631
-0.320479
-0.309914
-0.300773
-0.292924
-0.286255
-0.280679
-0.276127
-0.272545
-0.26989
-0.268133
-0.267257
0.398519
0.398841
0.399484
0.400444
0.40172
0.403311
0.405216
0.407428
0.409935
0.412721
0.415762
0.419017
0.422426
0.425951
0.429288
0.432469
0.435099
0.436956
0.437335
0.436421
0.434017
0.43646
0.429267
0.437317
0.460925
0.477114
0.517189
0.633544
0.447975
-1.00691
-2.62287
-2.54119
-1.79683
-1.52186
-1.23697
-0.965787
-0.83402
-0.702958
-0.632507
-0.579919
-0.533988
-0.49544
-0.461549
-0.432827
-0.408051
-0.386571
-0.367833
-0.351643
-0.337497
-0.325171
-0.314463
-0.3052
-0.29725
-0.290498
-0.284853
-0.280245
-0.276619
-0.273932
-0.272153
-0.271266
0.390437
0.390716
0.391269
0.392092
0.393182
0.394534
0.396141
0.397991
0.400067
0.402342
0.404783
0.407339
0.409931
0.412515
0.414765
0.416687
0.417837
0.417984
0.41642
0.413519
0.409424
0.411124
0.406284
0.418576
0.453493
0.484955
0.552454
0.729635
0.759784
-0.491211
-1.88375
-2.05281
-1.57215
-1.36132
-1.13643
-0.914073
-0.807643
-0.696132
-0.631176
-0.581287
-0.536256
-0.498043
-0.464281
-0.435667
-0.410972
-0.389569
-0.370889
-0.354744
-0.340624
-0.32832
-0.31762
-0.308362
-0.300411
-0.293658
-0.288012
-0.283402
-0.279772
-0.277082
-0.275302
-0.274413
0.382081
0.382315
0.38278
0.383469
0.384377
0.385495
0.386814
0.388316
0.389978
0.391769
0.393647
0.395552
0.397397
0.399135
0.400434
0.401295
0.401262
0.400125
0.397221
0.393096
0.388191
0.389806
0.387855
0.403349
0.444297
0.483731
0.561239
0.758412
0.917679
-0.0930654
-1.29668
-1.64851
-1.36192
-1.19933
-1.02599
-0.850157
-0.768368
-0.677555
-0.620106
-0.574543
-0.531934
-0.495289
-0.462645
-0.434892
-0.410858
-0.389984
-0.371718
-0.3559
-0.34203
-0.329927
-0.31939
-0.310259
-0.302409
-0.295737
-0.290155
-0.285594
-0.282003
-0.27934
-0.277577
-0.276697
0.373494
0.373686
0.374065
0.374625
0.375358
0.376253
0.377297
0.378469
0.379743
0.381083
0.382443
0.383757
0.384934
0.385932
0.386431
0.386431
0.385507
0.383498
0.379823
0.37515
0.37011
0.371924
0.372541
0.38951
0.430805
0.470918
0.544581
0.731211
0.936128
0.130452
-0.884979
-1.31491
-1.1604
-1.03714
-0.909333
-0.777476
-0.718823
-0.648705
-0.600134
-0.560203
-0.521371
-0.487437
-0.456843
-0.430662
-0.407832
-0.387909
-0.370391
-0.355164
-0.341759
-0.330032
-0.319799
-0.310914
-0.303262
-0.296748
-0.291293
-0.286834
-0.28332
-0.280712
-0.278985