/*--------------------------------*- C++ -*----------------------------------*\
  =========                 |
  \\      /  F ield         | OpenFOAM: The Open Source CFD Toolbox
   \\    /   O peration     | Website:  https://openfoam.org
    \\  /    A nd           | Version:  12
     \\/     M anipulation  |
\*---------------------------------------------------------------------------*/
FoamFile
{
    format      ascii;
    class       surfaceScalarField;
    location    "20";
    object      phi;
}
// * * * * * * * * * * * * * * * * * * * * * * * * * * * * * * * * * * * * * //

dimensions      [0 3 -1 0 0 0 0];

internalField   nonuniform List<scalar> 
32440
(
4.93024e-06
0.0399831
1.18893e-05
0.039983
1.4856e-05
0.039985
2.1834e-05
0.039983
2.48276e-05
0.039985
3.18407e-05
0.039993
3.68763e-05
0.040005
4.19311e-05
0.040005
4.90024e-05
0.0400049
5.60876e-05
0.0400049
6.31874e-05
0.0400049
6.4288e-05
0.0399989
6.93667e-05
0.0399949
7.44194e-05
0.039995
7.94313e-05
0.039995
8.43842e-05
0.0399951
8.92577e-05
0.0399951
9.40285e-05
0.0399952
9.86708e-05
0.0399954
0.000103155
0.0399955
0.000107448
0.0399957
0.000111516
0.0399959
0.00011533
0.0399962
0.000118856
0.0399965
0.000122063
0.0399968
0.00012492
0.0399971
0.000127398
0.0399975
0.000129466
0.0399979
0.000129509
0.04
0.000125034
0.0400045
0.000124209
0.0400008
0.000124242
0.04
0.000123987
0.0400003
0.00012324
0.0400007
0.000123004
0.0400002
0.000121285
0.0400017
0.000119098
0.0400022
0.00011646
0.0400026
0.000113392
0.0400031
0.000109919
0.0400035
0.000106068
0.0400038
0.000101868
0.0400042
9.73479e-05
0.0400045
9.25374e-05
0.0400048
8.74696e-05
0.0400051
8.2172e-05
0.0400053
7.66719e-05
0.0400055
7.09977e-05
0.0400057
6.51675e-05
0.0400058
5.92038e-05
0.040006
5.31295e-05
0.0400061
4.49624e-05
0.0400082
3.27249e-05
0.0400122
3.24314e-05
0.0400123
3.00893e-05
0.0400143
2.37068e-05
0.0400164
1.92981e-05
0.0400044
1.28689e-05
0.0399944
6.42537e-06
0.0399964
0.0399944
6.06356e-06
0.039977
1.21779e-05
0.0399769
1.83115e-05
0.0399789
2.44785e-05
0.0399769
3.26917e-05
0.0399768
4.09629e-05
0.0399847
4.93011e-05
0.0399966
5.57123e-05
0.0399985
6.42018e-05
0.0399965
7.47732e-05
0.0399944
8.54255e-05
0.0399943
8.41617e-05
0.0400002
8.69484e-05
0.0399921
9.37822e-05
0.0399881
0.000100656
0.0399881
0.000107549
0.0399882
0.000114437
0.0399882
0.000121292
0.0399884
0.000128082
0.0399886
0.000134761
0.0399888
0.000141275
0.0399892
0.000147586
0.0399896
0.000153644
0.0399901
0.000159396
0.0399907
0.000164784
0.0399914
0.000169954
0.039992
0.000174455
0.039993
0.000178037
0.0399943
0.00018003
0.039998
0.000177078
0.0400074
0.000177653
0.0400003
0.000179024
0.0399986
0.000179667
0.0399996
0.000179561
0.0400009
0.000177498
0.0400023
0.000175876
0.0400033
0.000173496
0.0400046
0.000170378
0.0400058
0.000166555
0.0400069
0.000162058
0.040008
0.000156927
0.040009
0.000151202
0.0400099
0.000144931
0.0400108
0.000138164
0.0400116
0.000132937
0.0400103
0.0001253
0.0400129
0.000117297
0.0400135
0.000108972
0.040014
0.000100372
0.0400144
9.15318e-05
0.0400148
8.04778e-05
0.0400171
6.72436e-05
0.0400214
5.58725e-05
0.0400236
4.83817e-05
0.0400198
4.0789e-05
0.0400219
3.31164e-05
0.0400241
2.93828e-05
0.0400081
1.75993e-05
0.0400062
9.78117e-06
0.0400043
0.0400042
3.59639e-06
0.0399734
7.21628e-06
0.0399733
1.28644e-05
0.0399733
1.65575e-05
0.0399732
1.83117e-05
0.0399751
2.81398e-05
0.0399749
3.20586e-05
0.0399927
3.80801e-05
0.0399925
4.42145e-05
0.0399903
5.04715e-05
0.0399881
5.68617e-05
0.0399879
5.3405e-05
0.0400036
5.60751e-05
0.0399895
6.08828e-05
0.0399833
6.58227e-05
0.0399832
7.08933e-05
0.0399831
7.60836e-05
0.0399831
8.13779e-05
0.0399831
9.07623e-05
0.0399792
9.22142e-05
0.0399874
9.76685e-05
0.0399838
0.000103096
0.0399842
0.000108459
0.0399848
0.000113709
0.0399855
0.000118788
0.0399863
0.000123638
0.0399871
0.000128196
0.0399885
0.000132399
0.0399901
0.000134598
0.0399958
0.000132241
0.0400098
0.000133536
0.039999
0.000135559
0.0399966
0.000137162
0.039998
0.000138113
0.0399999
0.000139387
0.040001
0.000138973
0.0400038
0.000137883
0.0400057
0.000136124
0.0400075
0.000133707
0.0400093
0.000130659
0.040011
0.000127015
0.0400126
0.000122814
0.0400141
0.000118099
0.0400155
0.000112905
0.0400168
0.000105284
0.0400179
9.92799e-05
0.0400189
9.29339e-05
0.0400199
8.82808e-05
0.0400187
8.13615e-05
0.0400214
7.2212e-05
0.040024
6.2868e-05
0.0400265
4.53614e-05
0.0400389
4.37132e-05
0.0400253
3.79465e-05
0.0400256
3.20855e-05
0.0400278
2.81504e-05
0.040028
2.41583e-05
0.0400121
1.61193e-05
0.0400143
8.04903e-06
0.0400123
0.0400123
2.57761e-06
0.0399709
5.14937e-06
0.0399708
7.75446e-06
0.0399707
1.04074e-05
0.0399705
1.51234e-05
0.0399704
1.79189e-05
0.0399721
2.68066e-05
0.0399839
3.18055e-05
0.0399875
3.69274e-05
0.0399852
4.01832e-05
0.0399849
4.35862e-05
0.0399845
4.31722e-05
0.0400041
4.2928e-05
0.0399897
4.48535e-05
0.0399814
4.8954e-05
0.0399791
5.52321e-05
0.0399768
6.1686e-05
0.0399766
7.63105e-05
0.0399685
8.71056e-05
0.0399684
8.00588e-05
0.0399945
7.9098e-05
0.0399847
8.42032e-05
0.0399791
8.93313e-05
0.0399796
9.44343e-05
0.0399804
9.94588e-05
0.0399813
0.000104342
0.0399822
0.000109017
0.0399838
0.000113214
0.0399859
0.000115853
0.0399931
0.000113787
0.0400119
0.000115396
0.0399974
0.000117778
0.0399942
0.000119962
0.0399958
0.000121305
0.0399986
0.000120784
0.0400016
0.000120782
0.0400038
0.000120095
0.0400063
0.000118733
0.0400089
0.000118717
0.0400093
0.000116083
0.0400136
0.000112871
0.0400158
0.000109121
0.0400179
0.000104872
0.0400198
0.000100181
0.0400215
9.50989e-05
0.040023
8.96633e-05
0.0400244
8.39202e-05
0.0400256
7.59198e-05
0.0400267
7.16899e-05
0.0400256
6.52656e-05
0.0400304
4.86785e-05
0.0400431
4.19837e-05
0.0400456
3.51889e-05
0.0400321
3.02994e-05
0.0400304
2.53393e-05
0.0400328
2.63317e-05
0.040027
1.92797e-05
0.0400192
1.4198e-05
0.0400193
7.09649e-06
0.0400194
0.0400194
2.35391e-06
0.0399685
4.68052e-06
0.0399684
7.04113e-06
0.0399683
9.45052e-06
0.0399681
1.19225e-05
0.0399679
1.64727e-05
0.0399676
2.71143e-05
0.0399732
2.98682e-05
0.0399848
3.2748e-05
0.0399823
3.77652e-05
0.0399798
4.2935e-05
0.0399793
4.62871e-05
0.0400007
4.1852e-05
0.0399942
4.35994e-05
0.0399797
4.75495e-05
0.0399751
5.17132e-05
0.0399727
6.20898e-05
0.0399662
8.0669e-05
0.0399499
7.94669e-05
0.0399696
7.4466e-05
0.0399995
7.55979e-05
0.0399836
8.08546e-05
0.0399739
8.61933e-05
0.0399743
9.15605e-05
0.039975
9.68873e-05
0.039976
0.000102098
0.039977
0.000107116
0.0399788
0.00011186
0.0399812
0.000114655
0.0399903
0.000112923
0.0400136
0.000114838
0.0399954
0.000117675
0.0399914
0.000119667
0.0399938
0.000121366
0.0399969
0.000122935
0.04
0.000122956
0.0400037
0.000122237
0.0400071
0.000120793
0.0400103
0.000116655
0.0400135
0.000113858
0.0400164
0.000110447
0.0400192
0.000108481
0.0400198
0.00010402
0.0400242
9.91247e-05
0.0400264
9.38427e-05
0.0400283
8.82396e-05
0.04003
8.23659e-05
0.0400315
7.6264e-05
0.0400328
6.79823e-05
0.0400339
5.35493e-05
0.0400448
3.50042e-05
0.0400616
4.03757e-05
0.0400402
3.56745e-05
0.0400368
2.89269e-05
0.0400372
2.61468e-05
0.0400355
2.73429e-05
0.0400258
2.05189e-05
0.040026
1.36862e-05
0.0400262
6.84815e-06
0.0400263
0.0400262
2.36574e-06
0.0399662
6.69241e-06
0.0399641
9.05312e-06
0.039966
1.14612e-05
0.0399657
1.39302e-05
0.0399654
1.64775e-05
0.039965
2.31172e-05
0.0399666
3.18677e-05
0.0399761
3.4749e-05
0.0399795
3.77792e-05
0.0399768
4.29707e-05
0.0399741
6.43247e-05
0.0399794
4.99321e-05
0.0400086
4.5746e-05
0.0399838
4.77849e-05
0.0399731
5.40663e-05
0.0399664
6.65939e-05
0.0399537
7.53799e-05
0.0399411
7.64301e-05
0.0399686
7.37421e-05
0.0400022
7.7247e-05
0.0399801
8.29256e-05
0.0399682
8.87286e-05
0.0399685
9.4595e-05
0.0399691
0.000100455
0.0399701
0.000106229
0.0399712
0.000112027
0.039973
0.000116948
0.0399763
0.000120483
0.0399868
0.000119255
0.0400148
0.000121616
0.0399931
0.000124625
0.0399884
0.000127289
0.0399912
0.000128754
0.0399954
0.000128596
0.0400001
0.000128594
0.0400037
0.000129745
0.0400059
0.000128074
0.040012
0.000125623
0.0400159
0.000122449
0.0400196
0.000118616
0.0400231
0.000112184
0.0400263
0.000107227
0.0400292
0.000103815
0.0400298
9.80304e-05
0.0400341
9.19313e-05
0.0400361
8.55781e-05
0.0400378
7.90264e-05
0.0400393
7.0312e-05
0.0400426
5.34749e-05
0.0400617
4.86034e-05
0.0400665
4.36968e-05
0.0400452
3.67443e-05
0.0400437
3.17762e-05
0.0400422
3.48102e-05
0.0400325
2.7839e-05
0.0400328
2.08733e-05
0.040033
1.39172e-05
0.0400331
6.96972e-06
0.0400332
0.0400332
2.4435e-06
0.0399637
4.84626e-06
0.0399617
7.28193e-06
0.0399635
9.7634e-06
0.0399633
1.23057e-05
0.0399629
1.49256e-05
0.0399624
1.96389e-05
0.0399619
3.04623e-05
0.0399652
3.54202e-05
0.0399745
4.05337e-05
0.0399717
4.3822e-05
0.0399708
5.12857e-05
0.0399719
5.701e-05
0.0400028
4.70173e-05
0.0399938
5.12605e-05
0.0399689
6.17797e-05
0.0399559
8.65727e-05
0.0399289
7.57132e-05
0.039952
7.71626e-05
0.0399671
7.69295e-05
0.0400024
8.09623e-05
0.0399761
8.72299e-05
0.0399619
9.36866e-05
0.0399621
0.000100264
0.0399626
0.000106885
0.0399635
0.000113649
0.0399645
0.000119837
0.0399668
0.000125931
0.0399702
0.000130022
0.0399827
0.000129495
0.0400153
0.000132465
0.0399901
0.00013619
0.0399846
0.000138857
0.0399885
0.000140995
0.0399933
0.000142763
0.0399984
0.000142749
0.0400038
0.000139757
0.0400089
0.000137819
0.0400139
0.000134985
0.0400187
0.000133324
0.0400213
0.000128919
0.0400275
0.000123865
0.0400313
0.00011825
0.0400348
0.000110158
0.0400379
0.000105668
0.0400386
9.88706e-05
0.0400429
9.18354e-05
0.0400449
8.46229e-05
0.0400465
6.52854e-05
0.0400619
4.18793e-05
0.0400851
5.24382e-05
0.0400559
4.69697e-05
0.0400506
4.15161e-05
0.0400492
4.20882e-05
0.0400416
3.46812e-05
0.0400399
2.73032e-05
0.0400402
1.99549e-05
0.0400403
1.26328e-05
0.0400405
7.33184e-06
0.0400385
0.0400405
4.48919e-06
0.0399592
4.94209e-06
0.0399613
7.42541e-06
0.0399611
1.19542e-05
0.0399587
1.45436e-05
0.0399603
1.72101e-05
0.0399598
1.99742e-05
0.0399591
2.68534e-05
0.0399584
3.58718e-05
0.0399655
3.9056e-05
0.0399685
4.24339e-05
0.0399675
5.00216e-05
0.0399643
7.78444e-05
0.039975
6.00143e-05
0.0400117
5.04584e-05
0.0399784
5.92278e-05
0.0399471
7.23325e-05
0.0399158
7.58489e-05
0.0399485
7.97629e-05
0.0399632
8.00769e-05
0.0400021
8.47345e-05
0.0399714
9.17103e-05
0.0399549
9.89625e-05
0.0399548
0.000106413
0.0399551
0.000113963
0.0399559
0.000121495
0.0399569
0.000128887
0.0399594
0.000135996
0.0399631
0.000140855
0.0399778
0.000141424
0.0400148
0.00014521
0.0399863
0.000149416
0.0399804
0.00015283
0.0399851
0.000155167
0.0399909
0.000157355
0.0399962
0.000157381
0.0400037
0.000156272
0.04001
0.000154064
0.0400161
0.000150825
0.040022
0.000144638
0.0400275
0.000141609
0.0400305
0.000135849
0.0400371
0.000129463
0.0400412
0.000122569
0.0400448
0.000115273
0.0400459
0.000107657
0.0400505
9.98071e-05
0.0400527
8.7793e-05
0.0400586
6.7652e-05
0.0400821
6.15333e-05
0.0400912
5.74251e-05
0.0400601
5.13094e-05
0.0400567
5.32322e-05
0.0400473
4.72012e-05
0.0400476
3.92255e-05
0.0400479
3.13067e-05
0.0400481
2.34406e-05
0.0400482
1.56176e-05
0.0400483
7.82449e-06
0.0400463
0.0400483
2.43643e-06
0.0399568
4.84617e-06
0.0399589
9.28501e-06
0.0399566
9.76896e-06
0.0399583
1.43126e-05
0.0399558
1.69347e-05
0.0399572
1.96552e-05
0.0399564
2.24943e-05
0.0399555
3.3478e-05
0.0399545
3.86395e-05
0.0399634
4.2008e-05
0.0399641
4.56118e-05
0.0399607
5.54763e-05
0.0399652
5.17343e-05
0.0400154
5.43344e-05
0.0399758
6.92949e-05
0.0399322
7.07032e-05
0.0399144
7.45818e-05
0.0399446
8.09392e-05
0.0399569
8.18116e-05
0.0400012
8.7151e-05
0.0399661
9.49163e-05
0.0399472
0.000103061
0.0399467
0.000111504
0.0399467
0.000120139
0.0399473
0.000128841
0.0399482
0.000137437
0.0399508
0.000145546
0.039955
0.000151998
0.0399714
0.000153513
0.0400133
0.000158328
0.0399815
0.00016343
0.0399753
0.000167763
0.0399808
0.000170621
0.0399881
0.000170951
0.0399959
0.000171117
0.0400036
0.00016993
0.0400112
0.000169458
0.0400166
0.000165794
0.0400256
0.000161054
0.0400322
0.000153349
0.0400382
0.000148826
0.0400416
0.000141631
0.0400484
0.000133882
0.0400525
0.000123698
0.0400561
0.000117198
0.040057
0.000106492
0.0400634
8.36501e-05
0.0400814
5.47482e-05
0.040111
7.18245e-05
0.0400741
6.49089e-05
0.040067
6.60746e-05
0.0400556
5.73092e-05
0.040056
4.86271e-05
0.0400563
4.00321e-05
0.0400565
3.15201e-05
0.0400566
2.50826e-05
0.0400546
1.67033e-05
0.0400567
6.36418e-06
0.0400567
0.0400547
2.25555e-06
0.0399546
6.4962e-06
0.0399546
6.76534e-06
0.0399564
1.10771e-05
0.039954
1.14488e-05
0.0399554
1.3898e-05
0.0399547
1.84464e-05
0.0399519
2.11198e-05
0.0399529
2.39466e-05
0.0399517
3.69553e-05
0.0399504
4.2187e-05
0.0399589
4.36887e-05
0.0399592
4.94864e-05
0.0399594
6.36812e-05
0.0400012
6.43543e-05
0.0399752
8.94075e-05
0.0399071
7.3028e-05
0.0399308
7.51918e-05
0.0399425
7.79544e-05
0.0399541
8.33625e-05
0.0399958
8.93877e-05
0.0399601
9.59813e-05
0.0399406
0.000105098
0.0399376
0.000114656
0.0399371
0.000124537
0.0399374
0.000134573
0.0399382
0.000144785
0.0399406
0.000154358
0.0399454
0.000162045
0.0399637
0.000164926
0.0400104
0.000171207
0.0399752
0.000177426
0.0399691
0.000182276
0.0399759
0.000186028
0.0399843
0.000188795
0.0399931
0.000189157
0.0400032
0.000187947
0.0400124
0.000183236
0.0400213
0.000181136
0.0400277
0.000175795
0.0400375
0.000169389
0.0400446
0.000160061
0.0400509
0.000153977
0.0400545
0.000145311
0.0400612
0.00013621
0.0400652
0.000124792
0.0400684
0.000113137
0.0400751
9.337e-05
0.0401012
8.36487e-05
0.0401207
7.99795e-05
0.0400778
8.03486e-05
0.0400666
7.07905e-05
0.0400652
6.13413e-05
0.0400655
5.20133e-05
0.0400657
4.28039e-05
0.0400657
3.57056e-05
0.0400637
2.46996e-05
0.0400657
1.77724e-05
0.0400636
8.89588e-06
0.0400656
0.0400636
1.93753e-06
0.0399526
3.8749e-06
0.0399527
7.83821e-06
0.0399524
7.84163e-06
0.039954
1.19031e-05
0.0399514
1.40397e-05
0.0399526
1.62766e-05
0.0399496
1.86409e-05
0.0399505
2.1165e-05
0.0399492
2.38879e-05
0.0399477
3.68488e-05
0.0399459
4.21176e-05
0.039954
4.77351e-05
0.0399538
8.77077e-05
0.0399613
6.82686e-05
0.0399946
6.52913e-05
0.0399101
6.49847e-05
0.0399311
6.93544e-05
0.0399381
7.8453e-05
0.039945
9.03441e-05
0.0399839
8.70846e-05
0.0399633
9.45308e-05
0.0399332
0.000104678
0.0399274
0.00011546
0.0399263
0.000126736
0.0399262
0.000138324
0.0399266
0.000149991
0.0399289
0.000161264
0.0399341
0.000170875
0.0399541
0.000175434
0.0400058
0.000183048
0.0399676
0.000190601
0.0399616
0.000196974
0.0399696
0.000201175
0.0399801
0.000202703
0.0399916
0.000203341
0.0400026
0.000204116
0.0400116
0.000201139
0.0400243
0.000194566
0.0400343
0.000190572
0.0400415
0.000183363
0.0400518
0.000175158
0.0400591
0.000166156
0.0400635
0.000156531
0.0400708
0.000146461
0.0400752
0.000132098
0.0400828
0.000101544
0.0401057
7.8956e-05
0.0401238
9.43798e-05
0.0401053
9.38674e-05
0.0400783
8.54639e-05
0.040075
7.52006e-05
0.0400754
6.50944e-05
0.0400756
5.71522e-05
0.0400736
4.73623e-05
0.0400755
3.57138e-05
0.0400754
2.81889e-05
0.0400732
1.67518e-05
0.040075
9.38276e-06
0.0400729
0.040073
1.49009e-06
0.0399511
2.99251e-06
0.0399512
4.51923e-06
0.0399509
8.08223e-06
0.0399504
7.6983e-06
0.0399517
1.13847e-05
0.0399489
1.11688e-05
0.0399499
1.50794e-05
0.0399466
1.71514e-05
0.0399471
1.94318e-05
0.0399454
2.19685e-05
0.0399434
3.48152e-05
0.0399411
4.00435e-05
0.0399485
5.16849e-05
0.0399496
6.39493e-05
0.0399824
5.28732e-05
0.0399212
5.65306e-05
0.0399275
6.49945e-05
0.0399296
7.83433e-05
0.0399317
0.000114608
0.0399477
9.60185e-05
0.0399819
9.23547e-05
0.0399368
0.000101628
0.0399181
0.000113762
0.0399142
0.000126609
0.0399133
0.000140158
0.0399131
0.000153545
0.0399155
0.000167057
0.0399206
0.000178517
0.0399426
0.000185058
0.0399993
0.000194523
0.0399582
0.000203926
0.0399522
0.00021124
0.0399623
0.000216868
0.0399745
0.000220865
0.0399876
0.00022181
0.0400016
0.00021857
0.0400149
0.000217279
0.0400256
0.000212138
0.0400394
0.000203388
0.0400503
0.000197281
0.0400579
0.00018808
0.0400683
0.000176027
0.0400755
0.000167352
0.0400795
0.000154241
0.0400883
0.000130866
0.0401062
9.53905e-05
0.0401411
0.00010191
0.0401173
0.000110497
0.0400967
0.000101196
0.0400876
9.00724e-05
0.0400861
7.9146e-05
0.0400864
6.84358e-05
0.0400863
5.79302e-05
0.0400841
4.76159e-05
0.0400858
3.94768e-05
0.0400835
2.94822e-05
0.0400832
1.96031e-05
0.0400849
9.80194e-06
0.0400827
0.0400828
9.26578e-07
0.0399502
1.87627e-06
0.0399503
2.84603e-06
0.0399499
3.84737e-06
0.0399494
6.89419e-06
0.0399487
8.0047e-06
0.0399478
9.20547e-06
0.0399487
1.05262e-05
0.0399453
1.20041e-05
0.0399456
1.36906e-05
0.0399437
1.76464e-05
0.0399394
1.99333e-05
0.0399388
3.06398e-05
0.0399378
3.78409e-05
0.0399424
7.56177e-05
0.0399446
5.42571e-05
0.0399425
4.96851e-05
0.0399321
5.40722e-05
0.0399253
6.35373e-05
0.0399222
8.21592e-05
0.0399291
7.8191e-05
0.0399859
8.3434e-05
0.0399316
9.58985e-05
0.0399057
0.00010952
0.0399006
0.00012414
0.0398987
0.000139525
0.0398977
0.000155366
0.0398997
0.00017106
0.0399049
0.000185171
0.0399285
0.000194132
0.0399903
0.000205849
0.0399465
0.000217021
0.039941
0.000226355
0.0399529
0.000232971
0.0399679
0.000235735
0.0399848
0.000238995
0.0399984
0.000237658
0.0400162
0.000231919
0.0400313
0.000228046
0.0400433
0.000220359
0.040058
0.000209183
0.0400691
0.000200836
0.0400767
0.000189615
0.0400867
0.000177765
0.0400913
0.00015948
0.0401066
0.000134988
0.0401307
0.000122523
0.0401536
0.000128197
0.0401116
0.000117968
0.040107
0.000105921
0.0400997
9.41137e-05
0.040098
8.25694e-05
0.0400979
7.32967e-05
0.0400956
6.02784e-05
0.0400971
5.15081e-05
0.0400946
3.89429e-05
0.0400961
2.85559e-05
0.0400936
2.03072e-05
0.0400932
1.01468e-05
0.0400929
0.0400929
2.65881e-07
0.03995
2.56345e-06
0.039948
2.87294e-06
0.0399496
3.20427e-06
0.0399491
3.56982e-06
0.0399483
3.98712e-06
0.0399474
4.48104e-06
0.0399482
5.08266e-06
0.0399447
5.83378e-06
0.0399449
8.78464e-06
0.0399408
8.0013e-06
0.0399402
9.56151e-06
0.0399373
1.35594e-05
0.0399338
2.60845e-05
0.0399299
3.3252e-05
0.0399374
3.34003e-05
0.0399424
3.64789e-05
0.039929
4.2663e-05
0.0399191
5.01285e-05
0.0399148
5.90334e-05
0.0399202
6.36201e-05
0.0399813
7.37733e-05
0.0399214
8.75106e-05
0.039892
0.00010277
0.0398853
0.000119393
0.0398821
0.000137128
0.03988
0.000155801
0.039881
0.000174354
0.0398864
0.000191216
0.0399117
0.000203096
0.0399785
0.000217517
0.039932
0.00023126
0.0399273
0.000242341
0.0399419
0.000250372
0.0399599
0.000255966
0.0399792
0.000255514
0.0399988
0.000255951
0.0400158
0.000251567
0.0400357
0.000242732
0.0400521
0.000235856
0.0400648
0.00022537
0.0400796
0.00021365
0.0400884
0.000201057
0.0400993
0.000181895
0.0401105
0.000144389
0.0401441
0.000116841
0.0401582
0.000139348
0.0401311
0.000133956
0.040117
0.000120834
0.0401201
0.000110027
0.0401105
9.75583e-05
0.0401104
8.54341e-05
0.04011
7.36492e-05
0.0401074
6.21865e-05
0.0401086
5.10152e-05
0.0401058
4.20995e-05
0.040105
3.13925e-05
0.0401043
2.08478e-05
0.0401037
1.04113e-05
0.0401033
0.0401034
-4.76969e-07
0.0399504
-9.1725e-07
0.0399484
-1.3545e-06
0.0399501
-1.78087e-06
0.0399495
-2.18612e-06
0.0399488
-2.55468e-06
0.0399478
-8.67224e-07
0.0399465
-1.09358e-06
0.0399449
8.0823e-07
0.039943
-1.11219e-06
0.0399427
1.22219e-06
0.0399379
1.89712e-06
0.0399366
3.00683e-06
0.0399327
4.69051e-06
0.0399282
1.50998e-05
0.039927
1.85275e-05
0.039939
2.30392e-05
0.0399245
2.88449e-05
0.0399133
3.61678e-05
0.0399075
4.52161e-05
0.0399111
5.22684e-05
0.0399743
6.13464e-05
0.0399124
7.64219e-05
0.0398769
9.34756e-05
0.0398683
0.000112362
0.0398632
0.000132805
0.0398595
0.000154394
0.0398594
0.000176551
0.0398642
0.000196994
0.0398912
0.000212417
0.039963
0.000230163
0.0399143
0.000246625
0.0399108
0.00026001
0.0399285
0.000269678
0.0399502
0.000276371
0.0399725
0.000278102
0.0399971
0.000274101
0.0400198
0.00027076
0.040039
0.000262601
0.0400603
0.000252187
0.0400753
0.000240024
0.0400918
0.000226633
0.0401018
0.000210412
0.0401156
0.000177722
0.0401432
0.000134881
0.040187
0.0001501
0.040143
0.000151432
0.0401298
0.000137036
0.0401314
0.000127063
0.0401301
0.000111503
0.0401261
0.000100391
0.0401216
8.7723e-05
0.0401227
7.5479e-05
0.0401196
6.56323e-05
0.0401185
5.21316e-05
0.0401193
4.09384e-05
0.0401162
2.99893e-05
0.0401152
2.12313e-05
0.0401125
1.05959e-05
0.040114
0.040114
7.24302e-07
0.0399497
-2.51482e-06
0.0399517
-3.75818e-06
0.0399513
-3.00422e-06
0.0399488
-4.25208e-06
0.03995
-5.48608e-06
0.039949
-6.6958e-06
0.0399477
-7.84781e-06
0.0399461
-8.90436e-06
0.0399441
-7.81337e-06
0.0399416
-1.05016e-05
0.0399406
-1.08714e-05
0.039937
-8.80835e-06
0.0399307
-8.15137e-06
0.0399276
-4.72202e-06
0.0399236
3.73914e-06
0.0399305
5.41671e-06
0.0399228
1.25874e-05
0.0399061
1.95463e-05
0.0399005
3.05729e-05
0.0399001
5.39589e-05
0.0399509
5.00159e-05
0.0399163
6.25095e-05
0.0398644
8.1514e-05
0.0398493
0.000102942
0.0398418
0.000126517
0.0398359
0.000151777
0.0398342
0.000177854
0.0398381
0.000202861
0.0398662
0.000222693
0.0399432
0.000244551
0.0398925
0.000264568
0.0398908
0.000280959
0.0399121
0.00029251
0.0399387
0.000297931
0.0399671
0.000301653
0.0399934
0.000298842
0.0400226
0.000292089
0.0400458
0.00028212
0.0400703
0.000269661
0.0400877
0.000255408
0.040106
0.000237946
0.0401193
0.000217723
0.0401358
0.000185183
0.0401758
0.000178815
0.0401934
0.000170665
0.0401512
0.000156867
0.0401436
0.000139508
0.0401488
0.000128636
0.0401409
0.000116328
0.0401384
0.000102595
0.0401353
8.9423e-05
0.0401359
7.67758e-05
0.0401323
6.4598e-05
0.0401306
5.48453e-05
0.040129
4.34455e-05
0.0401276
3.23371e-05
0.0401264
1.94425e-05
0.0401254
1.06993e-05
0.0401227
0.0401247
-2.11468e-06
0.0399518
-4.19052e-06
0.0399537
-4.28334e-06
0.0399514
-8.40046e-06
0.0399529
-8.54067e-06
0.0399501
-1.07012e-05
0.0399512
-1.28709e-05
0.0399499
-1.50258e-05
0.0399482
-1.71328e-05
0.0399462
-1.91365e-05
0.0399436
-1.89734e-05
0.0399404
-2.05385e-05
0.0399386
-2.17053e-05
0.0399318
-2.23131e-05
0.0399282
-2.21236e-05
0.0399234
-2.08789e-05
0.0399293
-1.03107e-05
0.0399122
-8.04355e-06
0.0399038
2.29981e-06
0.0398902
1.90732e-05
0.0398833
7.25193e-05
0.0398975
4.94815e-05
0.0399394
4.74597e-05
0.0398664
6.65948e-05
0.0398301
9.08668e-05
0.0398175
0.000118044
0.0398088
0.000147655
0.0398046
0.000178905
0.0398069
0.000209112
0.039836
0.000234422
0.0399179
0.000261428
0.0398655
0.000286069
0.0398662
0.000305687
0.0398925
0.000319442
0.0399249
0.000327772
0.0399588
0.000327186
0.039994
0.000325024
0.0400247
0.000314186
0.0400566
0.000303676
0.0400808
0.000286505
0.0401049
0.000271612
0.0401209
0.000247687
0.0401432
0.000197243
0.0401862
0.000168848
0.0402042
0.000186625
0.0401756
0.000180801
0.040157
0.000163591
0.0401608
0.000147129
0.0401652
0.000131397
0.0401567
0.000118396
0.0401514
0.000102103
0.0401516
9.04959e-05
0.0401475
7.75068e-05
0.0401453
6.50805e-05
0.0401431
5.31435e-05
0.040141
4.16182e-05
0.0401391
3.24279e-05
0.0401356
2.14867e-05
0.0401363
1.07137e-05
0.0401335
0.0401354
-2.96919e-06
0.0399548
-5.9047e-06
0.0399567
-8.87108e-06
0.0399544
-9.8826e-06
0.0399539
-1.49486e-05
0.0399552
-1.60715e-05
0.0399523
-1.92494e-05
0.0399531
-2.24673e-05
0.0399515
-2.56998e-05
0.0399494
-2.89002e-05
0.0399468
-3.20065e-05
0.0399436
-3.29235e-05
0.0399395
-3.7514e-05
0.0399364
-3.76029e-05
0.0399283
-3.89454e-05
0.0399247
-3.92296e-05
0.0399296
-3.81133e-05
0.0399111
-2.71676e-05
0.0398929
-2.18889e-05
0.0398849
-1.17825e-05
0.0398732
1.35795e-05
0.0398721
1.51528e-05
0.0399378
2.47479e-05
0.0398568
4.82715e-05
0.0398066
7.56997e-05
0.0397901
0.000106948
0.0397775
0.00014167
0.0397698
0.000178817
0.0397698
0.000215974
0.0397989
0.00024822
0.0398857
0.000281754
0.0398319
0.000312012
0.0398359
0.000335646
0.0398689
0.000352171
0.0399084
0.000361325
0.0399496
0.000361906
0.0399934
0.000355548
0.0400311
0.000343584
0.0400686
0.00032757
0.0400968
0.000308875
0.0401236
0.00028462
0.0401452
0.000245655
0.0401822
0.00019264
0.0402393
0.000203901
0.0401929
0.000203645
0.0401759
0.000186149
0.0401745
0.000165579
0.0401814
0.000149992
0.0401808
0.000135384
0.0401713
0.00011769
0.0401691
0.00010488
0.0401644
9.08827e-05
0.0401615
7.76247e-05
0.0401585
6.5023e-05
0.0401557
5.49913e-05
0.040151
4.343e-05
0.0401507
3.02443e-05
0.0401487
2.13516e-05
0.0401452
8.63597e-06
0.0401462
0.040144
-3.81956e-06
0.0399586
-5.61471e-06
0.0399585
-1.14602e-05
0.0399602
-1.53742e-05
0.0399578
-1.7375e-05
0.0399572
-2.34815e-05
0.0399584
-2.56915e-05
0.0399553
-3.00128e-05
0.0399558
-3.24256e-05
0.0399518
-3.69038e-05
0.0399513
-4.13865e-05
0.039948
-4.58024e-05
0.0399439
-5.00075e-05
0.0399406
-5.38263e-05
0.0399321
-5.70078e-05
0.0399279
-5.72014e-05
0.0399297
-5.79739e-05
0.0399119
-5.88312e-05
0.0398938
-4.91105e-05
0.0398752
-4.01135e-05
0.0398642
-2.51162e-05
0.0398571
4.79884e-06
0.0399079
6.07403e-06
0.0398555
2.60612e-05
0.0397866
5.6756e-05
0.0397594
9.24816e-05
0.0397418
0.000133153
0.0397292
0.000177914
0.039725
0.000223405
0.0397534
0.000264617
0.0398445
0.000306605
0.03979
0.000343813
0.0397987
0.000373129
0.0398396
0.0003927
0.0398888
0.000400338
0.039942
0.000401322
0.0399924
0.000389431
0.040043
0.000374937
0.0400831
0.000350089
0.0401216
0.000320758
0.0401529
0.000290243
0.0401757
0.000255561
0.0402169
0.000241414
0.0402534
0.000230087
0.0402042
0.000211763
0.0401942
0.000186575
0.0401997
0.000164669
0.0402033
0.000151948
0.0401936
0.000134429
0.0401888
0.00012009
0.0401834
0.000104816
0.0401797
9.05101e-05
0.0401758
7.70677e-05
0.040172
6.63923e-05
0.0401664
5.23503e-05
0.0401651
4.28516e-05
0.0401602
3.17743e-05
0.0401598
2.10156e-05
0.040156
1.04675e-05
0.0401568
0.0401545
-4.65269e-06
0.0399633
-9.29073e-06
0.0399631
-1.19928e-05
0.0399629
-1.67958e-05
0.0399626
-2.37292e-05
0.0399642
-2.68107e-05
0.0399615
-3.20681e-05
0.0399605
-3.75159e-05
0.0399612
-4.3156e-05
0.0399575
-4.89751e-05
0.0399571
-5.49346e-05
0.039954
-6.09681e-05
0.0399499
-6.49678e-05
0.0399446
-7.07582e-05
0.0399379
-7.41143e-05
0.0399313
-7.6696e-05
0.0399323
-8.1886e-05
0.0399171
-8.3159e-05
0.039895
-8.16771e-05
0.0398737
-6.83723e-05
0.0398509
-4.821e-05
0.0398369
1.96361e-05
0.03984
-3.3843e-06
0.0398786
1.2789e-06
0.039782
3.32515e-05
0.0397274
7.36007e-05
0.0397014
0.000121274
0.0396815
0.000174781
0.0396715
0.00023141
0.0396968
0.000284315
0.0397916
0.000337338
0.0397369
0.00038402
0.0397521
0.000419813
0.0398038
0.000442836
0.0398658
0.000453073
0.0399318
0.000449118
0.0399964
0.000433733
0.0400584
0.000406495
0.0401103
0.000365125
0.040163
0.000312054
0.040206
0.000262693
0.040225
0.000235852
0.0402437
0.000255995
0.0402333
0.000239533
0.0402207
0.000214778
0.0402189
0.000189733
0.0402248
0.000170374
0.0402227
0.000152608
0.0402113
0.000136328
0.0402051
0.00011943
0.0402003
0.000103795
0.0401953
8.92886e-05
0.0401903
7.77803e-05
0.0401835
6.31154e-05
0.040181
5.31902e-05
0.040175
3.9851e-05
0.0401736
3.09933e-05
0.0401687
1.84734e-05
0.0401685
1.01972e-05
0.0401651
0.0401647
-5.45102e-06
0.0399687
-1.08979e-05
0.0399686
-1.64297e-05
0.0399685
-2.20926e-05
0.0399683
-2.59204e-05
0.039968
-3.19608e-05
0.0399675
-3.82518e-05
0.0399668
-4.48194e-05
0.0399678
-5.16962e-05
0.0399644
-5.88845e-05
0.0399643
-6.43798e-05
0.0399595
-7.21454e-05
0.0399577
-8.01175e-05
0.0399526
-8.81438e-05
0.0399459
-9.40324e-05
0.0399372
-9.35151e-05
0.0399318
-0.00010377
0.0399273
-0.000112334
0.0399036
-0.000114117
0.0398755
-0.000111727
0.0398485
-9.35442e-05
0.0398188
-6.59154e-05
0.0398124
-5.48156e-05
0.0398675
-3.00176e-05
0.0397572
4.92669e-06
0.0396924
4.90986e-05
0.0396573
0.000104321
0.0396263
0.00016969
0.0396061
0.000240611
0.0396259
0.000309718
0.0397225
0.000377393
0.0396693
0.000435926
0.0396935
0.000480462
0.0397592
0.000508151
0.0398381
0.00051855
0.0399214
0.000507951
0.040007
0.000480096
0.0400862
0.000430328
0.0401601
0.000379782
0.0402136
0.000345297
0.0402405
0.000295997
0.0402743
0.000284383
0.0402553
0.00027275
0.0402449
0.000247334
0.0402461
0.000216245
0.04025
0.000187428
0.0402536
0.000170657
0.0402394
0.000151859
0.0402301
0.000132889
0.0402241
0.000115556
0.0402177
0.000101693
0.0402092
8.7108e-05
0.0402049
7.36503e-05
0.040197
6.11481e-05
0.0401936
4.94462e-05
0.0401867
4.04032e-05
0.0401826
2.78643e-05
0.0401812
1.97164e-05
0.0401767
9.81348e-06
0.040175
0.0401745
-6.19935e-06
0.0399749
-1.24063e-05
0.0399748
-1.87164e-05
0.0399748
-2.31852e-05
0.0399727
-2.98736e-05
0.0399747
-3.68345e-05
0.0399745
-4.61214e-05
0.0399761
-5.17809e-05
0.0399735
-5.98708e-05
0.0399725
-6.64351e-05
0.0399709
-7.75097e-05
0.0399706
-8.50945e-05
0.0399653
-9.51696e-05
0.0399627
-0.000105678
0.0399564
-0.000116464
0.039948
-0.000123295
0.0399386
-0.000135473
0.0399395
-0.000144344
0.0399125
-0.000150781
0.0398819
-0.000152942
0.0398507
-0.000148241
0.0398141
-0.000123451
0.0397876
-8.83794e-05
0.0398324
-6.49954e-05
0.0397338
-3.48788e-05
0.0396623
1.03564e-05
0.039612
7.33267e-05
0.0395633
0.000153507
0.0395259
0.000245991
0.0395334
0.000338241
0.0396302
0.000424415
0.0395831
0.000499677
0.0396183
0.000555373
0.0397035
0.000588992
0.0398045
0.000599245
0.0399111
0.00058625
0.04002
0.000523885
0.0401486
0.000455383
0.0402286
0.000410804
0.0402582
0.000377421
0.0402739
0.000343457
0.0403083
0.000314795
0.040284
0.000281328
0.0402784
0.000248923
0.0402785
0.000217503
0.0402815
0.000192942
0.0402781
0.000170976
0.0402614
0.000151364
0.0402497
0.000131874
0.0402436
0.000114282
0.0402353
9.83524e-05
0.0402251
8.38628e-05
0.0402194
7.06103e-05
0.0402102
6.04155e-05
0.0402038
4.70796e-05
0.0402001
3.6456e-05
0.0401932
2.83842e-05
0.0401893
1.87172e-05
0.0401864
9.30567e-06
0.0401844
0.0401838
-6.88372e-06
0.0399818
-1.17852e-05
0.0399797
-1.88166e-05
0.0399818
-2.80441e-05
0.039982
-3.5528e-05
0.0399822
-4.33389e-05
0.0399823
-4.95503e-05
0.0399823
-5.82502e-05
0.0399822
-6.75087e-05
0.0399817
-7.74194e-05
0.0399808
-8.60459e-05
0.0399792
-9.947e-05
0.0399787
-0.000109734
0.0399729
-0.000122858
0.0399695
-0.000136822
0.0399619
-0.000149454
0.0399513
-0.000160403
0.0399505
-0.000178882
0.0399309
-0.000191791
0.0398948
-0.000201133
0.03986
-0.000201277
0.0398142
-0.000182101
0.0397684
-0.000107367
0.0397577
-0.000104713
0.0397311
-0.000102938
0.0197961
0.0198644
-6.32428e-05
0.0197497
0.0198226
8.47713e-06
0.0197081
0.0197835
0.000111474
0.0196716