/*--------------------------------*- C++ -*----------------------------------*\
  =========                 |
  \\      /  F ield         | OpenFOAM: The Open Source CFD Toolbox
   \\    /   O peration     | Website:  https://openfoam.org
    \\  /    A nd           | Version:  12
     \\/     M anipulation  |
\*---------------------------------------------------------------------------*/
FoamFile
{
    format      ascii;
    class       volVectorField;
    location    "20";
    object      U;
}
// * * * * * * * * * * * * * * * * * * * * * * * * * * * * * * * * * * * * * //

dimensions      [0 1 -1 0 0 0 0];

internalField   nonuniform List<vector> 
16227
(
(1.99996 2.99151e-05 -4.2599e-22)
(1.99996 9.04636e-05 4.26242e-22)
(1.99996 0.0001511 -4.26237e-22)
(1.99996 0.000212197 -4.24682e-22)
(1.99996 0.000273863 4.24677e-22)
(1.99996 0.000336258 4.21977e-22)
(1.99996 0.000399561 -1.68278e-24)
(1.99996 0.000463883 -8.38355e-22)
(1.99996 0.000529288 1.25004e-21)
(1.99996 0.000595891 -8.31806e-22)
(1.99996 0.000663805 0)
(1.99996 0.000733146 8.18505e-22)
(1.99996 0.000803541 0)
(1.99996 0.000874902 0)
(1.99996 0.000947215 0)
(1.99996 0.00102033 0)
(1.99996 0.00109405 0)
(1.99996 0.0011681 0)
(1.99996 0.00124215 0)
(1.99997 0.0013158 0)
(1.99997 0.00138853 -7.30117e-22)
(1.99997 0.00145981 1.26924e-23)
(1.99997 0.00152903 7.17364e-22)
(1.99998 0.00159561 0)
(1.99998 0.00165894 -6.75461e-22)
(1.99998 0.00171836 6.75437e-22)
(1.99998 0.00177322 0)
(1.99999 0.00182286 3.18413e-22)
(1.99999 0.00186667 0)
(1.99999 0.00190404 0)
(2 0.0019341 0)
(2 0.00195661 0)
(2.00001 0.00197124 0)
(2.00001 0.00197769 5.247e-22)
(2.00001 0.0019757 -1.78075e-23)
(2.00002 0.0019652 -5.06886e-22)
(2.00002 0.00194622 0)
(2.00002 0.00191891 4.54151e-22)
(2.00003 0.00188349 -1.70941e-23)
(2.00003 0.0018403 -4.37074e-22)
(2.00003 0.00178973 0)
(2.00003 0.00173224 0)
(2.00004 0.00166832 0)
(2.00004 0.00159847 0)
(2.00004 0.00152326 0)
(2.00004 0.00144322 0)
(2.00004 0.00135886 0)
(2.00004 0.00127066 0)
(2.00004 0.00117912 0)
(2.00004 0.00108461 0)
(2.00004 0.000987559 0)
(2.00005 0.000888347 0)
(2.00005 0.000787354 0)
(2.00005 0.000684845 0)
(2.00005 0.000581285 -1.25399e-22)
(2.00005 0.000476788 1.25404e-22)
(2.00005 0.00037151 0)
(2.00005 0.000265683 0)
(2.00005 0.000159518 0)
(2.00005 5.30022e-05 1.18984e-22)
(1.9999 -6.28209e-06 -5.10926e-25)
(1.99989 -1.74714e-05 0)
(1.99989 -2.85947e-05 0)
(1.99989 -3.84199e-05 0)
(1.99989 -4.64563e-05 -7.18004e-22)
(1.99989 -5.21658e-05 0)
(1.99989 -5.4981e-05 0)
(1.99988 -5.43507e-05 -2.12475e-21)
(1.99988 -4.97105e-05 1.41503e-21)
(1.99988 -4.06233e-05 -2.79776e-21)
(1.99987 -2.6534e-05 1.11442e-20)
(1.99987 -6.7655e-06 -6.92811e-21)
(1.99987 1.93486e-05 3.44537e-21)
(1.99986 5.14166e-05 0)
(1.99986 8.99492e-05 0)
(1.99986 0.000135426 0)
(1.99986 0.000188055 0)
(1.99985 0.000247932 0)
(1.99985 0.000315079 0)
(1.99985 0.000389401 0)
(1.99985 0.000470292 0)
(1.99986 0.000557157 0)
(1.99986 0.000649355 0)
(1.99986 0.000746041 0)
(1.99987 0.000846179 0)
(1.99988 0.000948563 -1.11711e-21)
(1.99989 0.00105187 1.11701e-21)
(1.9999 0.00115476 -5.38322e-22)
(1.99991 0.00125565 0)
(1.99992 0.00135286 0)
(1.99994 0.00144474 0)
(1.99995 0.00152951 0)
(1.99997 0.00160616 0)
(1.99998 0.00167344 0)
(2 0.00173029 0)
(2.00002 0.00177587 -8.26616e-22)
(2.00004 0.00180951 2.98621e-23)
(2.00005 0.00183086 2.94897e-23)
(2.00007 0.0018398 2.89862e-23)
(2.00009 0.00183642 7.38274e-22)
(2.0001 0.00182097 6.82324e-22)
(2.00012 0.00179386 -6.82345e-22)
(2.00013 0.0017556 0)
(2.00014 0.00170685 0)
(2.00015 0.00164827 0)
(2.00016 0.00158051 0)
(2.00017 0.00150441 0)
(2.00018 0.00142063 0)
(2.00019 0.00133 0)
(2.00019 0.00123327 0)
(2.0002 0.00113105 4.68331e-22)
(2.0002 0.00102388 -9.28229e-22)
(2.0002 0.000912487 -8.84845e-22)
(2.00021 0.000797697 8.84969e-22)
(2.00021 0.000679928 -8.45679e-22)
(2.00021 0.000559696 1.26111e-21)
(2.00021 0.000437415 -4.15582e-22)
(2.00022 0.000313546 2.02887e-22)
(2.00022 0.000188655 -2.02906e-22)
(2.00021 6.23244e-05 -9.65868e-25)
(1.99999 -6.75076e-05 7.19883e-22)
(1.99998 -0.000203434 0)
(1.99998 -0.000338759 0)
(1.99998 -0.000472602 0)
(1.99997 -0.000604075 7.18106e-22)
(1.99997 -0.000732509 -1.42981e-21)
(1.99996 -0.000857296 5.65401e-24)
(1.99996 -0.000977427 2.13326e-21)
(1.99995 -0.00109213 7.07283e-22)
(1.99994 -0.00120073 2.80175e-21)
(1.99993 -0.00130229 -2.80995e-21)
(1.99992 -0.0013958 -5.5526e-21)
(1.99991 -0.00147927 6.89557e-22)
(1.99989 -0.00155288 0)
(1.99988 -0.00161568 6.76015e-22)
(1.99987 -0.00166656 0)
(1.99986 -0.00170458 0)
(1.99984 -0.00172895 0)
(1.99983 -0.00173885 -2.55541e-21)
(1.99982 -0.00173379 2.55504e-21)
(1.99981 -0.00171336 -1.23792e-21)
(1.9998 -0.00167831 1.23785e-21)
(1.99979 -0.00162863 0)
(1.99979 -0.00156478 -1.16983e-21)
(1.99978 -0.00148765 2.47505e-23)
(1.99978 -0.00139845 1.14493e-21)
(1.99979 -0.00129867 0)
(1.99979 -0.00119005 0)
(1.9998 -0.00107438 0)
(1.99981 -0.00095354 0)
(1.99983 -0.000829602 4.81296e-22)
(1.99985 -0.000705662 -9.78132e-22)
(1.99987 -0.000583518 0)
(1.99989 -0.000464964 0)
(1.99991 -0.000351755 8.57038e-22)
(1.99994 -0.000245353 -8.56992e-22)
(1.99997 -0.000146844 0)
(1.99999 -5.70809e-05 0)
(2.00002 2.32608e-05 0)
(2.00005 9.38327e-05 0)
(2.00007 0.000154569 0)
(2.0001 0.00020555 0)
(2.00012 0.000247076 -3.19906e-22)
(2.00014 0.000279515 0)
(2.00016 0.000303404 0)
(2.00018 0.000319289 0)
(2.00019 0.000327652 -2.63905e-22)
(2.00021 0.000329155 5.36356e-22)
(2.00022 0.00032437 0)
(2.00023 0.000314029 2.4376e-22)
(2.00024 0.00029864 0)
(2.00025 0.000278705 4.59952e-22)
(2.00026 0.000255001 8.80123e-22)
(2.00027 0.000227747 1.94828e-22)
(2.00027 0.000197629 -8.58785e-22)
(2.00028 0.000165081 4.12913e-22)
(2.00028 0.000130565 -4.13061e-22)
(2.00028 9.45546e-05 0)
(2.00028 5.75054e-05 0)
(2.00028 1.8954e-05 -1.99911e-22)
(2.00015 -9.23849e-05 0)
(2.00014 -0.000280734 0)
(2.00014 -0.000467763 -7.23363e-22)
(2.00014 -0.000653478 0)
(2.00013 -0.000836823 -7.1851e-22)
(2.00012 -0.00101712 7.18465e-22)
(2.00011 -0.00119378 0)
(2.0001 -0.0013658 -2.12621e-21)
(2.00008 -0.0015322 2.1311e-21)
(2.00007 -0.0016922 0)
(2.00005 -0.00184487 -2.78768e-21)
(2.00003 -0.00198897 -8.33434e-21)
(2.00001 -0.00212174 -1.37664e-21)
(1.99999 -0.00224305 0)
(1.99996 -0.00235191 -6.75951e-22)
(1.99993 -0.00244685 0)
(1.99991 -0.00252655 0)
(1.99988 -0.00258987 5.19398e-21)
(1.99985 -0.00263562 -5.19297e-21)
(1.99982 -0.00266237 0)
(1.99979 -0.00266884 -1.24038e-21)
(1.99977 -0.0026566 2.1576e-23)
(1.99974 -0.00262539 2.27068e-23)
(1.99972 -0.0025752 1.19604e-21)
(1.9997 -0.00250688 0)
(1.99969 -0.00242179 0)
(1.99968 -0.00232166 0)
(1.99968 -0.0022085 5.33275e-22)
(1.99968 -0.00208453 -6.39885e-24)
(1.99968 -0.001952 5.04148e-22)
(1.9997 -0.00181351 -7.69294e-24)
(1.99971 -0.00167281 0)
(1.99974 -0.00153204 0)
(1.99976 -0.00139339 0)
(1.99979 -0.00125888 -8.56582e-22)
(1.99983 -0.00113023 3.06792e-23)
(1.99986 -0.00100895 3.04342e-23)
(1.9999 -0.000895967 3.00472e-23)
(1.99993 -0.000791902 1.50123e-21)
(1.99997 -0.000697002 -7.35825e-22)
(2 -0.000611101 0)
(2.00004 -0.000534023 -3.31713e-22)
(2.00007 -0.000465364 3.19848e-22)
(2.0001 -0.000404501 0)
(2.00012 -0.000350789 0)
(2.00015 -0.000303557 0)
(2.00017 -0.000262214 -2.7238e-22)
(2.00019 -0.000225951 0)
(2.00021 -0.000194177 0)
(2.00023 -0.000166404 -4.85176e-22)
(2.00024 -0.000141907 -9.23966e-22)
(2.00025 -0.000120187 1.82018e-21)
(2.00026 -0.000100499 -8.96567e-22)
(2.00027 -8.31135e-05 -1.06675e-21)
(2.00028 -6.75431e-05 8.50571e-22)
(2.00029 -5.33518e-05 0)
(2.00029 -4.0203e-05 0)
(2.0003 -2.77447e-05 1.98825e-22)
(2.0003 -1.58848e-05 0)
(2.0003 -4.90602e-06 0)
(2.00033 -9.75436e-05 0)
(2.00033 -0.000297963 0)
(2.00032 -0.00049649 -1.71985e-24)
(2.00031 -0.000694 0)
(2.00031 -0.000889294 0)
(2.00029 -0.00108191 -1.43772e-21)
(2.00028 -0.00127121 -2.14126e-21)
(2.00026 -0.00145623 2.14565e-21)
(2.00024 -0.00163585 0)
(2.00022 -0.00180928 0)
(2.0002 -0.00197575 -2.79454e-21)
(2.00017 -0.00213379 1.66833e-20)
(2.00013 -0.00228051 -1.38135e-21)
(2.0001 -0.00241461 1.37571e-21)
(2.00006 -0.00253579 0)
(2.00002 -0.00264216 0)
(1.99998 -0.00273202 2.63883e-21)
(1.99993 -0.00280418 7.82651e-21)
(1.99988 -0.00285722 -3.91208e-21)
(1.99984 -0.0028886 0)
(1.99979 -0.00289712 0)
(1.99974 -0.00288456 0)
(1.9997 -0.00285034 0)
(1.99966 -0.00279443 -1.17563e-21)
(1.99962 -0.00271788 2.50501e-23)
(1.99959 -0.00262234 2.61071e-23)
(1.99957 -0.00250988 1.12417e-21)
(1.99955 -0.00238309 5.42512e-22)
(1.99954 -0.00224455 -6.67461e-24)
(1.99955 -0.002097 -5.19679e-22)
(1.99955 -0.00194377 1.4783e-21)
(1.99957 -0.00178936 -9.80168e-22)
(1.9996 -0.00163644 -9.18449e-22)
(1.99963 -0.00148735 9.18395e-22)
(1.99966 -0.00134464 8.5587e-22)
(1.99971 -0.00121015 -8.55832e-22)
(1.99975 -0.00108525 0)
(1.9998 -0.000970824 0)
(1.99984 -0.000867209 -7.33306e-22)
(1.99989 -0.000774427 7.33319e-22)
(1.99993 -0.000692127 6.75572e-22)
(1.99997 -0.000619606 -3.43988e-22)
(2.00001 -0.000555915 0)
(2.00005 -0.000499969 0)
(2.00008 -0.000450811 0)
(2.00012 -0.000407413 0)
(2.00014 -0.000368729 0)
(2.00017 -0.000333857 0)
(2.00019 -0.000301985 -2.47373e-22)
(2.00021 -0.00027228 -1.17938e-21)
(2.00022 -0.000244131 9.43992e-22)
(2.00024 -0.000216655 8.85195e-22)
(2.00025 -0.000190277 -1.31779e-21)
(2.00026 -0.000164513 8.39076e-22)
(2.00027 -0.000138991 -8.39104e-22)
(2.00027 -0.00011364 0)
(2.00028 -8.82374e-05 0)
(2.00028 -6.25122e-05 -3.33046e-24)
(2.00029 -3.68559e-05 0)
(2.00028 -1.13199e-05 0)
(2.00051 -9.69475e-05 -7.26036e-22)
(2.00051 -0.000296923 0)
(2.00051 -0.000494576 -3.44256e-25)
(2.0005 -0.000691508 7.25421e-22)
(2.00049 -0.000886581 0)
(2.00047 -0.00107931 -2.21054e-24)
(2.00045 -0.00126909 -1.43378e-21)
(2.00043 -0.00145518 1.43315e-21)
(2.00041 -0.00163626 0)
(2.00038 -0.00181127 0)
(2.00035 -0.00197957 1.40939e-21)
(2.00031 -0.00214017 5.59549e-21)
(2.00027 -0.00229025 -2.76511e-21)
(2.00022 -0.00242576 1.37709e-21)
(2.00017 -0.00254803 0)
(2.00011 -0.00265503 -1.34019e-21)
(2.00005 -0.00274446 1.34025e-21)
(1.99998 -0.0028145 -2.45825e-23)
(1.99992 -0.00286371 -5.87305e-21)
(1.99985 -0.00288888 -1.26877e-21)
(1.99978 -0.00288876 1.28315e-21)
(1.99971 -0.00286499 2.17128e-23)
(1.99964 -0.00281676 1.22735e-21)
(1.99958 -0.00274436 0)
(1.99952 -0.00264898 0)
(1.99948 -0.00253246 0)
(1.99944 -0.00239742 0)
(1.99941 -0.00224704 -5.42368e-22)
(1.99939 -0.00208484 0)
(1.99939 -0.00191411 0)
(1.9994 -0.00173907 1.48234e-21)
(1.99941 -0.00156515 -9.8183e-22)
(1.99944 -0.00139562 0)
(1.99948 -0.00123355 0)
(1.99953 -0.00108167 0)
(1.99958 -0.000942037 0)
(1.99964 -0.000816274 7.91715e-22)
(1.9997 -0.000704969 -3.11085e-23)
(1.99976 -0.000608187 -1.13231e-21)
(1.99981 -0.000525521 0)
(1.99987 -0.00045604 0)
(1.99992 -0.000398401 6.43293e-22)
(1.99997 -0.000351309 -9.56671e-22)
(2.00002 -0.000313208 0)
(2.00006 -0.000282427 0)
(2.00009 -0.000257358 0)
(2.00012 -0.000236712 0)
(2.00015 -0.000219089 0)
(2.00017 -0.000203643 7.29547e-22)
(2.00019 -0.000189215 1.85409e-21)
(2.00021 -0.000174751 -1.85966e-21)
(2.00022 -0.000159003 8.70783e-22)
(2.00023 -0.000143386 -4.38523e-22)
(2.00024 -0.000127089 0)
(2.00025 -0.000109776 2.01365e-22)
(2.00026 -9.13837e-05 0)
(2.00026 -7.19309e-05 0)
(2.00026 -5.13108e-05 -1.95466e-22)
(2.00027 -3.0295e-05 0)
(2.00027 -8.66674e-06 1.88172e-22)
(2.00069 -9.47398e-05 -2.4728e-24)
(2.0007 -0.000290146 0)
(2.00069 -0.000482924 0)
(2.00068 -0.000675282 -7.28598e-22)
(2.00067 -0.000866248 0)
(2.00065 -0.00105516 7.223e-22)
(2.00063 -0.0012416 -7.19528e-22)
(2.0006 -0.00142485 1.43859e-21)
(2.00057 -0.00160368 0)
(2.00054 -0.00177673 -2.83302e-21)
(2.0005 -0.00194317 1.42344e-21)
(2.00045 -0.0021021 -9.99173e-24)
(2.0004 -0.00225166 5.56777e-21)
(2.00034 -0.00238578 -2.74986e-21)
(2.00027 -0.0025049 1.32812e-23)
(2.00019 -0.0026084 -6.5321e-22)
(2.00011 -0.00269328 1.33402e-20)
(2.00003 -0.00275695 -5.38932e-21)
(1.99994 -0.00279646 -8.49433e-21)
(1.99985 -0.00281007 1.16228e-20)
(1.99975 -0.00279594 1.28267e-21)
(1.99966 -0.00275466 -1.23366e-21)
(1.99957 -0.00268543 2.30672e-23)
(1.99948 -0.0025887 1.21031e-21)
(1.9994 -0.00246589 0)
(1.99933 -0.00231939 0)
(1.99928 -0.00215245 0)
(1.99924 -0.00196911 0)
(1.99921 -0.00177375 5.31886e-22)
(1.9992 -0.00157051 0)
(1.99921 -0.00136509 -1.49912e-21)
(1.99924 -0.00116376 0)
(1.99927 -0.000970636 9.19648e-22)
(1.99932 -0.000789578 -9.19552e-22)
(1.99939 -0.000624017 8.5418e-22)
(1.99945 -0.000476341 -3.25727e-23)
(1.99953 -0.000347978 -1.6108e-21)
(1.9996 -0.000239516 7.89229e-22)
(1.99968 -0.000150738 -3.54512e-22)
(1.99975 -8.075e-05 7.26128e-22)
(1.99982 -2.80266e-05 3.38896e-22)
(1.99989 9.57814e-06 0)
(1.99995 3.40476e-05 3.13189e-22)
(2 4.77643e-05 0)
(2.00005 5.27873e-05 0)
(2.00009 5.11796e-05 2.71319e-22)
(2.00012 4.51242e-05 -2.5983e-22)
(2.00015 3.61228e-05 0)
(2.00018 2.55651e-05 2.85206e-21)
(2.0002 1.50632e-05 1.75578e-21)
(2.00021 6.33026e-06 -3.6529e-21)
(2.00023 -1.45605e-06 -8.53246e-22)
(2.00024 -8.11794e-06 1.88892e-21)
(2.00024 -1.26864e-05 -8.28272e-22)
(2.00025 -1.51515e-05 -2.01341e-22)
(2.00025 -1.54262e-05 0)
(2.00026 -1.36748e-05 3.79157e-22)
(2.00026 -1.01437e-05 -1.90305e-22)
(2.00026 -5.80856e-06 0)
(2.00026 -2.02015e-07 -4.96653e-24)
(2.00086 -9.32949e-05 7.28663e-22)
(2.00088 -0.000285038 0)
(2.00087 -0.000473932 0)
(2.00086 -0.000662685 7.31007e-22)
(2.00084 -0.000850581 1.78192e-24)
(2.00082 -0.00103681 7.27353e-22)
(2.0008 -0.00122105 -7.25567e-22)
(2.00077 -0.00140245 -2.15821e-21)
(2.00074 -0.00158022 1.43814e-21)
(2.0007 -0.00175262 -2.84599e-21)
(2.00065 -0.00191832 -6.93403e-22)
(2.00059 -0.00207659 4.24078e-21)
(2.00053 -0.00222627 -1.11531e-20)
(2.00046 -0.00236195 -5.51668e-21)
(2.00037 -0.00247898 5.52267e-21)
(2.00028 -0.00257934 -6.78944e-22)
(2.00018 -0.00265955 1.61697e-20)
(2.00007 -0.00271696 -2.70959e-21)
(1.99995 -0.00274699 -2.61431e-21)
(1.99983 -0.00274785 -7.70534e-21)
(1.99971 -0.00271755 1.28608e-21)
(1.99959 -0.00265567 0)
(1.99947 -0.0025614 0)
(1.99935 -0.00243512 -1.19313e-21)
(1.99925 -0.00227869 2.58574e-23)
(1.99916 -0.00209507 1.16692e-21)
(1.99908 -0.00188797 0)
(1.99903 -0.00166251 1.08157e-21)
(1.999 -0.00142439 -1.61292e-21)
(1.99898 -0.00117913 0)
(1.99899 -0.000933723 4.8228e-22)
(1.99903 -0.000695824 -1.94099e-21)
(1.99908 -0.000470822 3.32735e-23)
(1.99915 -0.000263367 1.80758e-21)
(1.99923 -7.77831e-05 -3.36326e-23)
(1.99932 8.31258e-05 -8.53173e-22)
(1.99941 0.000217763 0)
(1.99951 0.0003258 7.53558e-22)
(1.99961 0.000407893 -3.21134e-23)
(1.99971 0.00046559 -7.21475e-22)
(1.9998 0.000501054 -6.74509e-22)
(1.99988 0.000516985 0)
(1.99995 0.000516516 0)
(2.00001 0.000502535 -2.92216e-22)
(2.00007 0.0004782 0)
(2.00012 0.000446117 -5.37801e-22)
(2.00016 0.000408848 2.59738e-22)
(2.00019 0.000368341 -4.87949e-22)
(2.00021 0.000326507 -2.82642e-21)
(2.00023 0.000285473 -1.78485e-21)
(2.00024 0.00024786 9.18139e-22)
(2.00025 0.000211062 -2.8778e-23)
(2.00026 0.000176336 -1.24178e-21)
(2.00027 0.000144675 3.97624e-22)
(2.00027 0.000116201 0)
(2.00027 9.0815e-05 0)
(2.00027 6.82452e-05 -5.77052e-24)
(2.00027 4.79181e-05 0)
(2.00027 2.87538e-05 0)
(2.00028 1.14345e-05 -1.8318e-22)
(2.00104 -9.41007e-05 0)
(2.00105 -0.000286339 0)
(2.00105 -0.00047557 7.36105e-22)
(2.00103 -0.000664882 -7.31661e-22)
(2.00102 -0.000853956 0)
(2.001 -0.00104192 -1.45995e-21)
(2.00097 -0.00122841 7.28197e-22)
(2.00094 -0.00141258 7.25893e-22)
(2.0009 -0.00159386 0)
(2.00086 -0.00177039 0)
(2.0008 -0.00194035 -2.13203e-21)
(2.00074 -0.00210289 1.43002e-21)
(2.00066 -0.00225671 5.60328e-21)
(2.00057 -0.00239814 1.6773e-20)
(2.00047 -0.00251902 0)
(2.00036 -0.002621 -2.74976e-21)
(2.00024 -0.00270066 -1.08141e-20)
(2.0001 -0.00275437 -2.68798e-21)
(1.99996 -0.00277818 -5.25768e-21)
(1.99981 -0.00276903 1.32978e-21)
(1.99965 -0.00272339 -2.53541e-21)
(1.99949 -0.00264052 2.19795e-23)
(1.99934 -0.00251946 2.33938e-23)
(1.99919 -0.00236053 1.22649e-21)
(1.99906 -0.00216592 0)
(1.99894 -0.00193875 0)
(1.99884 -0.00168383 0)
(1.99877 -0.00140762 5.53625e-22)
(1.99873 -0.00111724 -5.37778e-22)
(1.99872 -0.00081955 0)
(1.99873 -0.00052374 9.85769e-22)
(1.99878 -0.000239213 -9.90464e-22)
(1.99885 2.72899e-05 0)
(1.99894 0.000269559 0)
(1.99905 0.000482611 1.28716e-21)
(1.99917 0.000663164 -8.52222e-22)
(1.99929 0.00080918 -7.83115e-22)
(1.99942 0.000920454 1.53229e-21)
(1.99955 0.000998384 -7.49163e-22)
(1.99967 0.00104524 0)
(1.99979 0.00106426 9.88199e-22)
(1.99989 0.00105874 -6.52631e-22)
(1.99998 0.00103295 -3.01557e-22)
(2.00006 0.000990803 5.79431e-22)
(2.00012 0.000936045 0)
(2.00017 0.00087218 2.66501e-22)
(2.00022 0.000802227 -4.98373e-22)
(2.00025 0.000728839 4.87765e-22)
(2.00027 0.000654529 -1.75016e-21)
(2.00029 0.000582863 9.96926e-22)
(2.00031 0.000512673 4.39268e-22)
(2.00031 0.000444143 2.0211e-22)
(2.00032 0.000379373 -2.02145e-22)
(2.00032 0.000318467 -1.95778e-22)
(2.00032 0.000261742 3.69625e-22)
(2.00031 0.000208842 -3.86513e-24)
(2.00031 0.000159347 -3.64721e-22)
(2.00031 0.000112537 1.7387e-22)
(2.00031 6.72153e-05 0)
(2.00032 2.42089e-05 0)
(2.00122 -9.7849e-05 0)
(2.00124 -0.000296198 0)
(2.00123 -0.000491421 -1.47597e-21)
(2.00122 -0.000687087 0)
(2.0012 -0.000883182 0)
(2.00118 -0.00107877 -3.78692e-24)
(2.00116 -0.00127363 0)
(2.00112 -0.001467 -7.26865e-22)
(2.00108 -0.00165792 -7.24154e-22)
(2.00103 -0.001845 7.23345e-22)
(2.00097 -0.00202613 -2.86058e-21)
(2.00089 -0.00219972 2.8605e-21)
(2.0008 -0.0023643 0)
(2.0007 -0.00251708 -1.67857e-20)
(2.00059 -0.00265012 -2.84431e-21)
(2.00045 -0.00276048 2.64462e-21)
(2.0003 -0.00284722 -1.64629e-20)
(2.00014 -0.00290301 5.36949e-21)
(1.99996 -0.0029257 -2.68035e-21)
(1.99977 -0.00291078 0)
(1.99958 -0.00285318 -2.59757e-21)
(1.99938 -0.00275118 0)
(1.99918 -0.00260314 -1.23703e-21)
(1.99899 -0.00240974 1.23682e-21)
(1.99882 -0.00217276 -1.18492e-21)
(1.99867 -0.00189621 5.96524e-22)
(1.99855 -0.00158593 0)
(1.99846 -0.0012496 -5.53697e-22)
(1.99841 -0.000896362 1.62106e-21)
(1.99839 -0.000535224 5.24342e-22)
(1.99842 -0.000177755 -1.00015e-21)
(1.99848 0.000164523 -4.54754e-22)
(1.99857 0.00048289 9.59505e-22)
(1.99869 0.000769524 0)
(1.99884 0.00101806 4.16573e-22)
(1.999 0.00122446 -3.60156e-23)
(1.99916 0.00138698 -3.56648e-23)
(1.99933 0.00150561 -7.79295e-22)
(1.9995 0.00158226 7.09837e-22)
(1.99965 0.00161999 -1.05431e-21)
(1.99979 0.00162333 3.27811e-22)
(1.99992 0.00159711 0)
(2.00003 0.0015462 3.01458e-22)
(2.00012 0.00147575 -2.87222e-22)
(2.0002 0.0013906 0)
(2.00026 0.00129501 0)
(2.00031 0.00119227 4.98207e-22)
(2.00035 0.00108568 -1.3367e-23)
(2.00037 0.000978544 -7.96437e-23)
(2.00039 0.00087638 1.73493e-21)
(2.0004 0.000774398 4.1962e-22)
(2.0004 0.000675104 1.94921e-22)
(2.0004 0.000580674 1.88797e-22)
(2.00039 0.000491006 -5.63422e-24)
(2.00039 0.00040629 -1.90619e-22)
(2.00038 0.000326052 0)
(2.00038 0.000249835 0)
(2.00037 0.000176703 -3.40229e-22)
(2.00037 0.000105447 0)
(2.00038 3.68242e-05 0)
(2.00141 -0.000104609 0)
(2.00143 -0.00031497 0)
(2.00143 -0.000522246 -1.36426e-24)
(2.00141 -0.000730358 7.41209e-22)
(2.0014 -0.000939672 0)
(2.00138 -0.00114926 7.35447e-22)
(2.00135 -0.00135906 7.34029e-22)
(2.00132 -0.00156838 -2.75345e-24)
(2.00127 -0.00177614 -3.63007e-24)
(2.00122 -0.00198091 -7.24425e-22)
(2.00115 -0.00218048 7.24237e-22)
(2.00106 -0.00237286 7.20393e-22)
(2.00096 -0.00255588 -1.4312e-21)
(2.00085 -0.00272749 -1.13527e-20)
(2.00071 -0.00288261 -2.78716e-21)
(2.00055 -0.00300914 1.11361e-20)
(2.00038 -0.00311092 8.22223e-21)
(2.00018 -0.0031771 -5.44185e-21)
(1.99996 -0.00320526 5.37253e-21)
(1.99973 -0.00319038 7.97562e-21)
(1.99949 -0.00312558 1.30368e-21)
(1.99924 -0.00300738 4.01709e-24)
(1.99899 -0.00283387 -1.24899e-21)
(1.99876 -0.00260487 2.47219e-21)
(1.99854 -0.00232202 -1.22317e-21)
(1.99835 -0.00198991 5.88337e-22)
(1.99819 -0.00161556 0)
(1.99808 -0.00120888 5.6306e-22)
(1.99801 -0.000781126 5.44207e-22)
(1.998 -0.000343561 -5.41588e-22)
(1.99803 8.86596e-05 4.97288e-22)
(1.99812 0.000501096 4.89838e-22)
(1.99824 0.000882717 4.52761e-22)
(1.9984 0.00122366 -9.2575e-22)
(1.99859 0.00151617 0)
(1.9988 0.00175517 -8.12436e-22)
(1.99902 0.00193886 3.71974e-23)
(1.99924 0.0020677 7.74948e-22)
(1.99944 0.00214483 -7.02681e-22)
(1.99964 0.00217441 3.86965e-23)
(1.99982 0.00216215 1.73435e-23)
(1.99997 0.00211471 -9.08971e-22)
(2.00011 0.00203849 6.02735e-22)
(2.00022 0.00193973 -2.75364e-22)
(2.00031 0.00182411 -2.61145e-22)
(2.00038 0.00169674 -9.8132e-22)
(2.00043 0.00156208 2.84922e-21)
(2.00047 0.00142428 3.5127e-24)
(2.0005 0.00128702 3.5597e-21)
(2.00051 0.00115258 1.22066e-21)
(2.00052 0.00101949 -2.11668e-22)
(2.00051 0.00089108 -3.89893e-22)
(2.00051 0.000768588 -1.81024e-22)
(2.0005 0.000651877 1.8106e-22)
(2.00049 0.000540905 -1.76681e-22)
(2.00048 0.000434987 -1.66702e-22)
(2.00047 0.000333916 1.66733e-22)
(2.00046 0.000236301 4.82384e-24)
(2.00046 0.000140886 1.61556e-22)
(2.00047 4.84478e-05 0)
(2.00162 -0.000114096 0)
(2.00164 -0.000342046 0)
(2.00164 -0.00056698 0)
(2.00163 -0.000793278 -7.44269e-22)
(2.00161 -0.00102163 7.44265e-22)
(2.00159 -0.00125129 -7.40891e-22)
(2.00157 -0.00148233 7.40891e-22)
(2.00153 -0.00171423 0)
(2.00149 -0.00194577 0)
(2.00143 -0.00217576 7.29531e-22)
(2.00135 -0.00240163 -1.45517e-21)
(2.00126 -0.00262095 4.67176e-24)
(2.00115 -0.00283158 2.85267e-21)
(2.00102 -0.00302999 8.50367e-21)
(2.00086 -0.00321437 5.62889e-21)
(2.00068 -0.0033689 -5.63921e-21)
(2.00047 -0.00349318 -5.5559e-21)
(2.00023 -0.00357871 3.45341e-21)
(1.99997 -0.00362089 -2.72807e-21)
(1.99969 -0.00361398 1.10591e-22)
(1.9994 -0.0035499 -5.2261e-21)
(1.99909 -0.00341875 1.04198e-20)
(1.99878 -0.00322094 -1.28646e-21)
(1.99848 -0.00295532 0)
(1.9982 -0.00262298 0)
(1.99796 -0.00222854 0)
(1.99776 -0.00178062 0)
(1.99762 -0.00129096 -5.63239e-22)
(1.99754 -0.000774441 5.50251e-22)
(1.99752 -0.000245616 -6.37297e-24)
(1.99757 0.000276553 0)
(1.99768 0.00077392 4.72757e-22)
(1.99785 0.00123203 -4.94333e-22)
(1.99806 0.00163825 4.54838e-22)
(1.99831 0.00198317 8.48984e-22)
(1.99858 0.0022608 -1.26262e-21)
(1.99885 0.00246959 -7.70182e-22)
(1.99913 0.00261065 3.96302e-22)
(1.99939 0.0026882 0)
(1.99964 0.00270863 3.40225e-22)
(1.99986 0.00267949 5.4083e-24)
(2.00005 0.00260913 6.05062e-24)
(2.00021 0.00250572 -2.83727e-22)
(2.00034 0.00237702 -5.22342e-22)
(2.00045 0.00222972 7.90552e-22)
(2.00053 0.00206998 -1.90153e-21)
(2.00059 0.00190312 1.90153e-21)
(2.00063 0.0017349 -3.57981e-21)
(2.00065 0.00156782 3.68154e-21)
(2.00066 0.00140238 -1.22243e-21)
(2.00066 0.00124073 0)
(2.00066 0.00108552 1.78979e-22)
(2.00064 0.00093713 -1.79019e-22)
(2.00063 0.000795745 0)
(2.00061 0.000660978 0)
(2.0006 0.000531996 0)
(2.00058 0.000408621 0)
(2.00057 0.000289177 0)
(2.00056 0.000172301 0)
(2.00058 5.86788e-05 0)
(2.00186 -0.000125859 0)
(2.00188 -0.000376125 0)
(2.00187 -0.000623585 0)
(2.00186 -0.000872989 0)
(2.00185 -0.00112546 0)
(2.00184 -0.00138064 7.45744e-22)
(2.00181 -0.00163846 -1.48934e-21)
(2.00178 -0.00189885 7.43675e-22)
(2.00173 -0.00216063 -7.3833e-22)
(2.00167 -0.00242268 3.27003e-24)
(2.00159 -0.00268262 7.35106e-22)
(2.00149 -0.00293697 0)
(2.00137 -0.00318336 -1.44576e-21)
(2.00122 -0.0034175 -4.29337e-21)
(2.00105 -0.00363777 2.85721e-20)
(2.00084 -0.00383381 -1.13759e-20)
(2.00059 -0.0039906 5.61371e-21)
(2.00031 -0.0041059 7.33777e-24)
(2 -0.00417195 3.41988e-21)
(1.99966 -0.00418115 -5.32335e-21)
(1.9993 -0.00412442 -1.07261e-20)
(1.99892 -0.00398638 3.17043e-23)
(1.99854 -0.00376731 0)
(1.99816 -0.00346454 -1.25215e-21)
(1.99781 -0.00307835 2.78428e-23)
(1.9975 -0.00261384 1.22368e-21)
(1.99725 -0.00208054 0)
(1.99707 -0.00149315 0)
(1.99696 -0.00087053 -5.58012e-22)
(1.99694 -0.000231714 -1.07715e-21)
(1.99701 0.000399231 1.01334e-21)
(1.99715 0.000998815 -5.18081e-22)
(1.99737 0.00154852 0)
(1.99765 0.00203235 -1.34455e-21)
(1.99797 0.00243847 4.55175e-22)
(1.99831 0.00276036 8.07047e-22)
(1.99867 0.00299633 -8.05516e-22)
(1.99902 0.00314914 3.73627e-22)
(1.99935 0.00322503 3.35334e-22)
(1.99965 0.00323277 -1.01502e-21)
(1.99992 0.00318286 6.17672e-24)
(2.00015 0.00308583 6.88134e-24)
(2.00034 0.00295172 2.83605e-22)
(2.0005 0.00279011 8.00775e-24)
(2.00062 0.00260869 0)
(2.00071 0.00241497 1.44899e-23)
(2.00077 0.00221546 1.83241e-21)
(2.00082 0.00201647 -3.29568e-21)
(2.00084 0.00181907 4.29858e-23)
(2.00084 0.00162449 -1.95104e-22)
(2.00084 0.00143638 0)
(2.00082 0.00125639 1.69502e-22)
(2.0008 0.00108433 -1.69543e-22)
(2.00078 0.000920668 0)
(2.00076 0.000764704 0)
(2.00074 0.000615596 0)
(2.00072 0.000472777 1.45259e-22)
(2.0007 0.000334531 -1.4528e-22)
(2.00069 0.000199219 0)
(2.00071 6.74328e-05 0)
(2.00211 -0.000139361 0)
(2.00213 -0.000415612 0)
(2.00213 -0.000689367 0)
(2.00213 -0.000965902 0)
(2.00212 -0.00124662 0)
(2.0021 -0.00153163 -7.50823e-22)
(2.00208 -0.00182098 1.49962e-21)
(2.00205 -0.00211496 -2.2961e-24)
(2.00201 -0.00241275 -2.66609e-24)
(2.00195 -0.00271298 7.37806e-22)
(2.00187 -0.00301379 -2.21918e-21)
(2.00177 -0.00331129 3.93264e-24)
(2.00164 -0.00360208 7.33513e-22)
(2.00147 -0.00388188 -1.44977e-21)
(2.00127 -0.00414741 -8.64441e-21)
(2.00104 -0.00439365 -8.59689e-21)
(2.00075 -0.00459562 5.83941e-23)
(2.00042 -0.00475215 7.44614e-22)
(2.00005 -0.00485319 2.1028e-21)
(1.99964 -0.00488839 -8.17407e-21)
(1.9992 -0.0048465 -8.29222e-21)
(1.99874 -0.00470957 -2.64432e-21)
(1.99826 -0.00447368 0)
(1.9978 -0.00413385 -1.26955e-21)
(1.99736 -0.00368951 2.82429e-23)
(1.99696 -0.00314558 1.24064e-21)
(1.99664 -0.00251294 6.01293e-22)
(1.9964 -0.00180943 0)
(1.99627 -0.00105883 1.12961e-21)
(1.99624 -0.000286543 -1.61931e-21)
(1.99633 0.000476019 5.31377e-22)
(1.99652 0.00119893 -9.79317e-22)
(1.9968 0.00185837 1.43409e-21)
(1.99716 0.00243376 -4.40788e-23)
(1.99757 0.00291035 -4.56179e-22)
(1.99802 0.00328101 4.12464e-22)
(1.99846 0.00354473 0)
(1.9989 0.00370619 0)
(1.99931 0.00377526 -3.24683e-22)
(1.99968 0.00376419 6.80383e-22)
(2 0.00368656 3.11016e-22)
(2.00028 0.00355621 7.81162e-24)
(2.00051 0.00338555 -5.35089e-22)
(2.00069 0.00318591 -7.32342e-22)
(2.00083 0.00296699 2.87609e-21)
(2.00093 0.00273797 -1.8473e-21)
(2.00099 0.00250586 8.28153e-22)
(2.00103 0.00227274 2.46679e-21)
(2.00105 0.00204342 -2.74968e-21)
(2.00105 0.00182082 -3.70008e-22)
(2.00103 0.00160714 0)
(2.00101 0.00140387 -1.59107e-22)
(2.00098 0.00121034 1.59156e-22)
(2.00095 0.00102676 0)
(2.00092 0.000852205 1.41763e-22)
(2.00089 0.000685705 -1.41788e-22)
(2.00087 0.000526391 0)
(2.00085 0.000372326 0)
(2.00084 0.0002215 0)
(2.00085 7.47086e-05 0)
(2.0024 -0.000154037 0)
(2.00242 -0.000458734 0)
(2.00242 -0.00076149 0)
(2.00242 -0.00106787 0)
(2.00241 -0.00137986 0)
(2.00241 -0.00169793 0)
(2.00239 -0.00202234 -7.54331e-22)
(2.00237 -0.00235396 2.10019e-24)
(2.00233 -0.00269237 -7.47346e-22)
(2.00227 -0.0030361 7.52612e-22)
(2.0022 -0.00338384 -7.40527e-22)
(2.00209 -0.00373176 1.48754e-21)
(2.00195 -0.00407531 -1.47202e-21)
(2.00177 -0.00441029 9.28616e-24)
(2.00155 -0.0047318 1.31286e-20)
(2.00128 -0.00503533 -2.88122e-21)
(2.00096 -0.005297 -5.71536e-21)
(2.00058 -0.00550869 -6.68901e-22)
(2.00014 -0.00565829 3.20792e-23)
(1.99966 -0.00573248 8.39453e-21)
(1.99912 -0.00571666 -3.09197e-22)
(1.99855 -0.00559027 -1.33865e-21)
(1.99797 -0.0053433 2.00876e-21)
(1.99738 -0.00496775 6.56784e-22)
(1.99683 -0.00446087 0)
(1.99633 -0.00382675 6.27708e-22)
(1.99591 -0.0030776 -6.01679e-22)
(1.99561 -0.00223492 1.15761e-21)
(1.99543 -0.00132895 -1.72773e-21)
(1.9954 -0.00039348 1.61951e-21)
(1.99551 0.000530173 -5.37505e-22)
(1.99576 0.00140332 9.8651e-22)
(1.99613 0.00219455 -5.05786e-22)
(1.99659 0.00287727 1.35055e-21)
(1.99712 0.003434 -4.72333e-23)
(1.99768 0.00385633 -1.25283e-21)
(1.99824 0.00414521 -7.50402e-22)
(1.99879 0.00430902 7.50159e-22)
(1.99929 0.00436198 0)
(1.99974 0.00432171 3.23597e-22)
(2.00013 0.00420616 -2.95783e-22)
(2.00045 0.00403245 -2.67387e-22)
(2.00071 0.00381647 1.90739e-23)
(2.00092 0.00357129 0)
(2.00107 0.00330921 1.7141e-21)
(2.00118 0.00304109 -3.36298e-21)
(2.00125 0.00277176 -1.1806e-21)
(2.00128 0.0025031 -3.92753e-22)
(2.00129 0.00224284 1.73826e-22)
(2.00128 0.00199297 -1.15306e-21)
(2.00126 0.00175453 4.83923e-22)
(2.00122 0.00152914 -1.55522e-22)
(2.00118 0.00131607 0)
(2.00114 0.00111478 0)
(2.0011 0.000924092 0)
(2.00107 0.00074288 -1.26403e-22)
(2.00103 0.000569853 3.09579e-24)
(2.00101 0.000402848 1.23361e-22)
(2.00099 0.000239502 0)
(2.00101 8.0587e-05 0)
(2.00271 -0.000169193 -7.6352e-22)
(2.00273 -0.000503605 7.66032e-22)
(2.00274 -0.000836856 0)
(2.00274 -0.00117449 -7.64231e-22)
(2.00274 -0.0015195 7.64188e-22)
(2.00274 -0.00187271 0)
(2.00274 -0.00223459 7.60173e-22)
(2.00272 -0.00260682 -1.88026e-24)
(2.00269 -0.00298928 -1.51426e-21)
(2.00264 -0.00338098 -7.50902e-22)
(2.00257 -0.00378085 7.56373e-22)
(2.00247 -0.00418548 7.50474e-22)
(2.00232 -0.00458978 0)
(2.00214 -0.00498922 0)
(2.0019 -0.00537807 -1.42901e-21)
(2.0016 -0.00575014 -4.38322e-21)
(2.00123 -0.00608594 5.80233e-21)
(2.0008 -0.00636855 -4.30486e-21)
(2.00029 -0.00658346 3.07385e-23)
(1.99971 -0.00671298 5.71848e-21)
(1.99907 -0.00673811 1.92719e-20)
(1.99838 -0.00663535 -2.71974e-21)
(1.99765 -0.00638482 2.07711e-21)
(1.99692 -0.00597626 6.8038e-22)
(1.99622 -0.00540281 0)
(1.99559 -0.00466623 -6.282e-22)
(1.99505 -0.00377972 0)
(1.99465 -0.00276886 5.88262e-22)
(1.99442 -0.00167234 -2.03301e-23)
(1.99437 -0.000535095 -2.23731e-21)
(1.99452 0.000588065 3.1922e-21)
(1.99484 0.00164526 -4.8076e-23)
(1.99532 0.00259535 -9.94132e-22)
(1.99592 0.00340435 1.72454e-24)
(1.99659 0.00405063 -4.08417e-22)
(1.9973 0.00452541 1.25039e-21)
(1.99801 0.0048327 0)
(1.99868 0.00498721 0)
(1.99929 0.00501008 -6.47539e-22)
(1.99983 0.00492538 4.35646e-23)
(2.00029 0.00475708 1.18593e-21)
(2.00067 0.00452679 2.00976e-23)
(2.00097 0.00425355 2.14823e-23)
(2.00119 0.00395333 1.83424e-21)
(2.00136 0.00364082 -1.04045e-20)
(2.00147 0.00332809 4.15122e-21)
(2.00154 0.0030159 7.82327e-22)
(2.00156 0.00271046 0)
(2.00156 0.00242018 0)
(2.00154 0.00214228 6.5066e-22)
(2.0015 0.00187973 1.43223e-22)
(2.00145 0.00163347 -1.4326e-22)
(2.0014 0.00140257 0)
(2.00135 0.00118569 -1.2294e-22)