/*--------------------------------*- C++ -*----------------------------------*\
  =========                 |
  \\      /  F ield         | OpenFOAM: The Open Source CFD Toolbox
   \\    /   O peration     | Website:  https://openfoam.org
    \\  /    A nd           | Version:  12
     \\/     M anipulation  |
\*---------------------------------------------------------------------------*/
FoamFile
{
    format      ascii;
    class       volScalarField;
    location    "60";
    object      k;
}
// * * * * * * * * * * * * * * * * * * * * * * * * * * * * * * * * * * * * * //

dimensions      [0 2 -2 0 0 0 0];

internalField   nonuniform List<scalar> 
16227
(
0.00914646
0.00914648
0.00914647
0.00914651
0.0091465
0.00914654
0.00914653
0.00914651
0.00914651
0.00914653
0.00914657
0.00914659
0.00914665
0.00914665
0.00914665
0.00914665
0.00914665
0.00914665
0.00914665
0.00914665
0.00914665
0.00914665
0.00914665
0.00914665
0.00914665
0.00914665
0.00914665
0.00914666
0.00914667
0.00914664
0.00914665
0.00914665
0.00914665
0.00914665
0.00914665
0.00914665
0.00914665
0.00914665
0.00914665
0.00914665
0.00914665
0.00914665
0.00914665
0.00914665
0.00914665
0.00914665
0.00914665
0.00914663
0.00914662
0.00914662
0.00914662
0.00914661
0.00914654
0.00914654
0.00914649
0.00914649
0.00914651
0.00914649
0.00914647
0.00914646
0.00848122
0.00848124
0.00848123
0.00848127
0.00848127
0.00848131
0.0084813
0.00848127
0.00848128
0.00848129
0.00848135
0.00848137
0.00848151
0.00848157
0.00848159
0.00848159
0.00848159
0.00848159
0.00848159
0.00848159
0.0084816
0.00848161
0.00848161
0.00848161
0.00848161
0.00848161
0.00848161
0.0084816
0.00848159
0.00848154
0.00848159
0.00848161
0.00848161
0.00848161
0.0084816
0.00848159
0.00848158
0.00848158
0.00848158
0.00848158
0.00848158
0.00848158
0.00848158
0.00848156
0.00848156
0.00848155
0.00848155
0.00848155
0.00848156
0.00848154
0.00848151
0.00848146
0.00848134
0.00848133
0.00848129
0.00848127
0.00848131
0.00848123
0.00848124
0.00848122
0.00790075
0.00790077
0.00790078
0.00790079
0.00790078
0.00790088
0.00790083
0.00790082
0.00790083
0.00790084
0.00790089
0.0079009
0.00790116
0.00790122
0.00790123
0.00790124
0.00790124
0.00790124
0.00790126
0.00790121
0.00790124
0.00790125
0.00790125
0.00790125
0.00790124
0.00790124
0.00790124
0.00790124
0.00790123
0.00790116
0.00790121
0.00790122
0.00790123
0.00790122
0.00790123
0.00790122
0.00790122
0.00790121
0.0079012
0.0079012
0.0079012
0.0079012
0.00790119
0.00790118
0.00790118
0.00790119
0.00790118
0.00790118
0.00790117
0.00790114
0.00790111
0.00790091
0.00790083
0.00790082
0.0079008
0.0079008
0.00790083
0.00790073
0.00790075
0.00790073
0.00739025
0.00739027
0.00739027
0.00739029
0.00739029
0.00739036
0.00739037
0.00739033
0.00739034
0.00739034
0.00739039
0.00739045
0.00739072
0.00739079
0.00739081
0.00739083
0.00739084
0.00739085
0.00739079
0.00739066
0.00739078
0.00739081
0.0073908
0.00739081
0.00739081
0.0073908
0.00739079
0.00739078
0.00739075
0.00739066
0.00739073
0.00739075
0.00739074
0.00739073
0.00739073
0.00739073
0.00739073
0.00739072
0.00739073
0.00739072
0.00739072
0.00739071
0.00739071
0.00739071
0.0073907
0.0073907
0.0073907
0.0073907
0.0073907
0.00739067
0.00739055
0.00739035
0.00739026
0.00739028
0.00739028
0.00739029
0.00739027
0.0073902
0.0073902
0.00739018
0.00693812
0.00693814
0.00693814
0.00693816
0.00693817
0.00693823
0.00693826
0.00693821
0.00693822
0.00693823
0.00693827
0.00693833
0.00693859
0.00693872
0.00693875
0.00693875
0.00693876
0.00693874
0.00693852
0.00693845
0.00693864
0.00693871
0.0069387
0.00693868
0.00693866
0.00693865
0.00693863
0.00693862
0.00693858
0.00693847
0.00693855
0.00693856
0.00693856
0.00693855
0.00693853
0.00693853
0.00693853
0.00693854
0.00693853
0.00693853
0.00693854
0.00693854
0.00693853
0.00693853
0.00693853
0.00693854
0.00693853
0.00693853
0.00693853
0.00693845
0.0069382
0.00693809
0.00693802
0.00693805
0.00693807
0.00693812
0.00693806
0.00693798
0.00693798
0.00693797
0.00653516
0.00653518
0.00653518
0.0065352
0.0065352
0.00653526
0.0065353
0.00653526
0.00653525
0.00653525
0.00653527
0.00653531
0.00653544
0.00653573
0.0065358
0.00653582
0.00653582
0.00653572
0.00653549
0.00653545
0.00653566
0.00653571
0.00653569
0.00653566
0.00653564
0.00653562
0.00653559
0.00653556
0.00653551
0.00653539
0.00653546
0.00653546
0.00653545
0.00653545
0.00653544
0.00653543
0.00653543
0.00653543
0.00653543
0.00653543
0.00653543
0.00653544
0.00653544
0.00653546
0.00653545
0.00653546
0.00653546
0.00653546
0.00653546
0.00653532
0.00653508
0.00653496
0.00653493
0.00653498
0.00653503
0.00653502
0.00653496
0.0065349
0.0065349
0.00653489
0.00617396
0.00617398
0.00617398
0.00617399
0.006174
0.00617405
0.0061741
0.00617409
0.00617406
0.00617406
0.00617406
0.00617407
0.00617419
0.00617446
0.00617461
0.00617463
0.00617461
0.00617432
0.0061742
0.00617419
0.00617441
0.00617445
0.00617441
0.00617437
0.00617433
0.00617429
0.00617424
0.0061742
0.00617414
0.006174
0.00617407
0.00617407
0.00617404
0.00617403
0.00617402
0.00617402
0.00617401
0.00617402
0.00617402
0.00617404
0.00617404
0.00617405
0.00617406
0.00617407
0.00617409
0.00617409
0.0061741
0.00617411
0.00617404
0.00617377
0.00617364
0.00617356
0.00617357
0.00617364
0.00617365
0.00617365
0.0061736
0.00617355
0.00617356
0.00617354
0.00584852
0.00584853
0.00584853
0.00584856
0.00584855
0.0058486
0.00584865
0.00584866
0.00584863
0.00584861
0.0058486
0.00584858
0.00584864
0.00584879
0.00584909
0.00584918
0.00584912
0.00584879
0.00584869
0.00584867
0.00584889
0.00584892
0.00584886
0.0058488
0.00584873
0.00584868
0.00584862
0.00584855
0.00584846
0.00584831
0.00584837
0.00584836
0.00584834
0.00584832
0.0058483
0.0058483
0.0058483
0.0058483
0.00584831
0.00584832
0.00584835
0.00584835
0.00584837
0.0058484
0.00584842
0.00584843
0.00584845
0.00584844
0.00584831
0.00584806
0.00584794
0.00584791
0.00584796
0.005848
0.00584801
0.005848
0.00584797
0.00584792
0.00584793
0.00584791
0.00555391
0.00555392
0.00555393
0.00555394
0.00555395
0.00555398
0.00555403
0.00555403
0.00555404
0.00555401
0.00555398
0.00555394
0.00555398
0.00555409
0.00555445
0.00555456
0.00555441
0.0055541
0.005554
0.00555398
0.00555418
0.00555419
0.00555411
0.00555402
0.00555394
0.00555385
0.00555377
0.00555369
0.00555358
0.0055534
0.00555344
0.00555342
0.0055534
0.00555337
0.00555335
0.00555334
0.00555335
0.00555336
0.00555337
0.00555339
0.00555341
0.00555345
0.00555347
0.00555349
0.00555352
0.00555356
0.00555357
0.0055535
0.00555324
0.00555312
0.00555305
0.00555309
0.00555311
0.00555315
0.00555316
0.00555317
0.00555314
0.00555309
0.0055531
0.0055531
0.00528606
0.00528607
0.00528607
0.00528609
0.00528609
0.00528613
0.00528617
0.00528617
0.00528618
0.00528618
0.00528614
0.00528609
0.00528612
0.00528624
0.00528653
0.00528663
0.00528633
0.00528614
0.00528606
0.00528604
0.00528621
0.00528619
0.00528609
0.00528598
0.00528587
0.00528575
0.00528565
0.00528553
0.0052854
0.00528521
0.00528524
0.0052852
0.00528515
0.00528512
0.0052851
0.00528509
0.0052851
0.00528511
0.00528514
0.00528516
0.00528519
0.00528523
0.00528528
0.00528532
0.00528536
0.00528539
0.00528541
0.00528531
0.00528504
0.00528494
0.00528494
0.00528496
0.00528499
0.00528504
0.00528505
0.00528506
0.00528503
0.00528501
0.00528501
0.005285
0.00504157
0.00504158
0.00504158
0.00504159
0.00504161
0.00504164
0.00504168
0.00504168
0.00504168
0.00504168
0.00504167
0.0050416
0.00504157
0.00504164
0.00504178
0.005042
0.00504173
0.00504157
0.00504149
0.00504144
0.00504154
0.00504153
0.00504142
0.00504127
0.00504113
0.00504098
0.00504084
0.0050407
0.00504055
0.00504032
0.00504033
0.00504028
0.00504023
0.00504018
0.00504016
0.00504016
0.00504017
0.00504018
0.00504022
0.00504026
0.0050403
0.00504035
0.0050404
0.00504045
0.0050405
0.00504054
0.00504049
0.00504035
0.0050402
0.00504013
0.00504014
0.00504017
0.00504021
0.00504026
0.00504028
0.00504029
0.00504028
0.00504024
0.00504026
0.00504025
0.00481759
0.0048176
0.0048176
0.00481762
0.00481762
0.00481766
0.00481769
0.00481771
0.00481771
0.0048177
0.00481768
0.00481764
0.00481758
0.0048176
0.00481769
0.00481788
0.00481768
0.00481753
0.0048174
0.00481732
0.00481726
0.00481733
0.00481723
0.00481705
0.00481687
0.00481669
0.00481651
0.00481634
0.00481615
0.0048159
0.00481589
0.00481582
0.00481576
0.00481571
0.00481568
0.00481567
0.00481568
0.00481571
0.00481575
0.0048158
0.00481586
0.00481592
0.00481599
0.00481606
0.00481611
0.00481612
0.00481598
0.00481593
0.00481586
0.0048158
0.00481583
0.00481587
0.00481592
0.00481597
0.00481599
0.00481602
0.004816
0.00481597
0.00481599
0.00481599
0.0046117
0.00461171
0.00461172
0.00461173
0.00461174
0.00461178
0.00461181
0.00461182
0.00461182
0.00461182
0.00461181
0.00461176
0.00461171
0.00461166
0.00461166
0.00461169
0.00461167
0.00461158
0.00461143
0.0046113
0.00461117
0.00461125
0.00461112
0.00461091
0.00461069
0.00461046
0.00461025
0.00461004
0.00460982
0.00460954
0.0046095
0.00460941
0.00460933
0.00460928
0.00460924
0.00460924
0.00460926
0.00460929
0.00460935
0.00460941
0.00460949
0.00460957
0.00460965
0.00460973
0.00460978
0.00460977
0.00460965
0.00460965
0.00460958
0.00460955
0.00460959
0.00460964
0.0046097
0.00460975
0.00460979
0.00460981
0.0046098
0.00460979
0.0046098
0.0046098
0.00442185
0.00442187
0.00442187
0.00442189
0.0044219
0.00442194
0.00442196
0.00442198
0.00442199
0.00442199
0.00442197
0.00442192
0.00442188
0.00442183
0.00442176
0.00442176
0.00442177
0.00442167
0.00442151
0.00442135
0.00442118
0.00442123
0.00442105
0.0044208
0.00442053
0.00442026
0.00441999
0.00441974
0.00441948
0.00441917
0.0044191
0.004419
0.0044189
0.00441884
0.0044188
0.0044188
0.00441883
0.00441888
0.00441895
0.00441903
0.00441912
0.00441922
0.00441931
0.0044194
0.0044194
0.00441936
0.00441936
0.00441937
0.00441933
0.00441933
0.00441938
0.00441944
0.0044195
0.00441956
0.0044196
0.00441963
0.00441963
0.00441962
0.00441963
0.00441963
0.00424628
0.0042463
0.00424631
0.00424632
0.00424634
0.00424638
0.00424641
0.00424643
0.00424644
0.00424644
0.00424643
0.00424638
0.00424634
0.00424628
0.00424622
0.0042462
0.0042462
0.00424607
0.00424588
0.00424569
0.00424548
0.00424548
0.00424526
0.00424495
0.00424463
0.00424431
0.004244
0.0042437
0.00424339
0.00424305
0.00424295
0.00424282
0.00424271
0.00424263
0.0042426
0.0042426
0.00424264
0.00424271
0.00424279
0.00424289
0.004243
0.00424312
0.00424323
0.00424329
0.00424322
0.00424326
0.00424331
0.00424334
0.00424335
0.00424336
0.00424344
0.0042435
0.00424357
0.00424364
0.00424368
0.00424372
0.00424372
0.00424372
0.00424374
0.00424373
0.00408349
0.0040835
0.00408351
0.00408353
0.00408355
0.00408359
0.00408363
0.00408365
0.00408367
0.00408367
0.00408366
0.00408362
0.00408358
0.00408351
0.00408345
0.00408342
0.0040834
0.00408326
0.00408303
0.0040828
0.00408257
0.00408245
0.00408223
0.00408187
0.0040815
0.00408112
0.00408075
0.00408039
0.00408003
0.00407965
0.00407951
0.00407935
0.00407923
0.00407915
0.00407912
0.00407913
0.00407918
0.00407927
0.00407937
0.00407949
0.00407962
0.00407976
0.00407989
0.00407993
0.00407989
0.00407995
0.00408002
0.00408005
0.00408008
0.00408015
0.00408024
0.00408032
0.0040804
0.00408047
0.00408053
0.00408056
0.00408057
0.00408058
0.0040806
0.00408059
0.00393214
0.00393215
0.00393217
0.00393219
0.00393222
0.00393226
0.0039323
0.00393233
0.00393236
0.00393237
0.00393236
0.00393232
0.00393229
0.00393222
0.00393215
0.00393211
0.00393208
0.00393191
0.00393167
0.00393138
0.00393109
0.0039308
0.00393062
0.00393026
0.00392982
0.00392937
0.00392892
0.00392851
0.0039281
0.00392767
0.00392749
0.00392731
0.00392717
0.00392708
0.00392705
0.00392707
0.00392715
0.00392724
0.00392737
0.00392752
0.00392768
0.00392783
0.0039279
0.00392793
0.003928
0.0039281
0.0039282
0.00392824
0.00392829
0.0039284
0.0039285
0.00392859
0.00392867
0.00392876
0.00392882
0.00392886
0.00392887
0.00392888
0.0039289
0.0039289
0.00379111
0.00379112
0.00379114
0.00379117
0.0037912
0.00379125
0.0037913
0.00379133
0.00379137
0.00379139
0.00379139
0.00379136
0.00379132
0.00379127
0.00379119
0.00379114
0.00379109
0.00379092
0.00379064
0.00379031
0.00378996
0.00378958
0.00378938
0.00378896
0.00378845
0.00378792
0.00378741
0.00378692
0.00378644
0.00378596
0.00378574
0.00378553
0.00378537
0.00378528
0.00378526
0.0037853
0.00378539
0.00378551
0.00378567
0.00378585
0.00378603
0.00378617
0.00378617
0.00378628
0.00378642
0.00378657
0.00378668
0.00378675
0.00378683
0.00378695
0.00378706
0.00378717
0.00378726
0.00378735
0.00378742
0.00378746
0.00378748
0.0037875
0.00378751
0.00378752
0.00365939
0.00365941
0.00365943
0.00365946
0.0036595
0.00365956
0.00365962
0.00365966
0.00365971
0.00365974
0.00365975
0.00365974
0.0036597
0.00365965
0.00365957
0.00365952
0.00365945
0.00365926
0.00365897
0.00365861
0.00365821
0.00365778
0.00365745
0.00365699
0.00365641
0.00365579
0.00365519
0.00365462
0.00365407
0.00365353
0.00365326
0.00365302
0.00365284
0.00365275
0.00365274
0.0036528
0.00365292
0.00365308
0.00365326
0.00365346
0.00365366
0.00365381
0.00365385
0.003654
0.00365418
0.00365435
0.00365445
0.00365455
0.00365468
0.00365482
0.00365495
0.00365506
0.00365516
0.00365526
0.00365533
0.00365538
0.00365541
0.00365543
0.00365545
0.00365545
0.00353612
0.00353615
0.00353617
0.00353621
0.00353625
0.00353632
0.00353639
0.00353645
0.0035365
0.00353655
0.00353658
0.00353657
0.00353655
0.00353651
0.00353644
0.00353637
0.00353628
0.00353609
0.00353578
0.0035354
0.00353493
0.00353443
0.0035339
0.00353346
0.00353283
0.00353212
0.00353142
0.00353075
0.00353012
0.00352951
0.00352919
0.00352891
0.00352872
0.00352863
0.00352863
0.00352872
0.00352886
0.00352905
0.00352925
0.00352944
0.00352964
0.00352979
0.00352997
0.00353018
0.0035304
0.00353057
0.00353069
0.00353082
0.00353099
0.00353114
0.00353128
0.0035314
0.00353152
0.00353162
0.0035317
0.00353175
0.00353178
0.0035318
0.00353183
0.00353183
0.00342053
0.00342055
0.00342058
0.00342063
0.00342068
0.00342076
0.00342084
0.00342091
0.00342099
0.00342104
0.00342109
0.00342111
0.00342111
0.00342107
0.003421
0.0034209
0.0034208
0.00342063
0.00342033
0.00341991
0.00341941
0.00341882
0.0034182
0.0034177
0.00341696
0.00341615
0.00341533
0.00341455
0.00341381
0.00341312
0.00341274
0.00341242
0.00341222
0.00341213
0.00341216
0.00341228
0.00341246
0.00341266
0.00341289
0.00341312
0.00341329
0.00341352
0.00341378
0.00341404
0.00341428
0.00341444
0.0034146
0.00341479
0.00341498
0.00341514
0.0034153
0.00341543
0.00341555
0.00341565
0.00341574
0.0034158
0.00341583
0.00341586
0.00341589
0.00341589
0.00331193
0.00331195
0.00331199
0.00331204
0.0033121
0.00331219
0.00331229
0.00331238
0.00331247
0.00331255
0.00331262
0.00331266
0.00331268
0.00331267
0.00331261
0.00331251
0.0033124
0.00331225
0.00331194
0.0033115
0.00331095
0.00331032
0.00330961
0.00330898
0.00330816
0.00330722
0.00330627
0.00330535
0.0033045
0.00330371
0.00330324
0.00330289
0.00330267
0.00330259
0.00330265
0.0033028
0.003303
0.00330324
0.00330352
0.00330381
0.00330403
0.00330431
0.00330462
0.00330492
0.00330517
0.00330535
0.00330555
0.00330576
0.00330597
0.00330615
0.00330631
0.00330645
0.00330658
0.0033067
0.00330678
0.00330685
0.00330689
0.00330692
0.00330694
0.00330695
0.00320971
0.00320975
0.00320979
0.00320985
0.00320992
0.00321002
0.00321014
0.00321025
0.00321036
0.00321047
0.00321056
0.00321063
0.00321068
0.00321069
0.00321066
0.00321058
0.00321047
0.00321032
0.00321002
0.00320957
0.00320899
0.00320829
0.00320752
0.0032067
0.00320592
0.00320482
0.00320371
0.00320264
0.00320164
0.00320073
0.00320017
0.00319977
0.00319954
0.00319947
0.00319956
0.00319977
0.0031999
0.00320018
0.00320046
0.0032008
0.00320115
0.00320152
0.00320187
0.00320217
0.00320242
0.00320266
0.0032029
0.00320315
0.00320337
0.00320356
0.00320373
0.00320388
0.00320402
0.00320414
0.00320423
0.0032043
0.00320434
0.00320438
0.0032044
0.00320441
0.00311335
0.00311339
0.00311344
0.0031135
0.0031136
0.00311371
0.00311384
0.00311398
0.00311411
0.00311425
0.00311437
0.00311447
0.00311456
0.00311461
0.00311461
0.00311455
0.00311444
0.00311428
0.00311402
0.0031136
0.00311301
0.00311228
0.00311145
0.00311111
0.00315623
0.00315512
0.0031539
0.00315272
0.00315163
0.00315062
0.00315001
0.00314957
0.00314932
0.00314927
0.00314938
0.0031496
0.00310282
0.00310296
0.00310333
0.00310375
0.00310419
0.00310461
0.00310498
0.00310528
0.00310556
0.00310586
0.00310614
0.0031064
0.00310663
0.00310684
0.00310702
0.00310718
0.00310732
0.00310744
0.00310754
0.00310761
0.00310766
0.0031077
0.00310772
0.00310773
0.00302236
0.0030224
0.00302246
0.00302254
0.00302264
0.00302277
0.00302293
0.00302308
0.00302325
0.00302342
0.00302358
0.00302372
0.00302384
0.00302394
0.00302399
0.00302397
0.00302388
0.00302372
0.00302349
0.00302314
0.00302258
0.00302186
0.00302154
0.00306439
0.00306141
0.00306033
0.00305891
0.0030575
0.00305618
0.00305497
0.00305419
0.00305365
0.00305336
0.00305331
0.00305346
0.00305366
0.0030555
0.00301126
0.00301167
0.00301216
0.00301265
0.0030131
0.0030135
0.00301383
0.00301414
0.00301447
0.00301478
0.00301505
0.0030153
0.00301551
0.0030157
0.00301587
0.00301601
0.00301614
0.00301624
0.00301632
0.00301637
0.00301641
0.00301643
0.00301644
0.00293632
0.00293636
0.00293642
0.00293651
0.00293663
0.00293678
0.00293696
0.00293714
0.00293734
0.00293754
0.00293775
0.00293793
0.00293811
0.00293826
0.00293836
0.00293841
0.00293838
0.00293827
0.00293809
0.0029378
0.00293731
0.00293664
0.00293679
0.00297527
0.00297246
0.00299277
0.00299122
0.00298962
0.00298809
0.00298668
0.00298576
0.00298512
0.00298477
0.00298471
0.00298488
0.00296324
0.00296493
0.00292454
0.00292499
0.00292555
0.00292608
0.00292655
0.00292696
0.00292733
0.00292771
0.00292806
0.00292839
0.00292867
0.00292893
0.00292915
0.00292935
0.00292952
0.00292966
0.0029298
0.0029299
0.00292998
0.00293003
0.00293007
0.0029301
0.00293011
0.00285482
0.00285487
0.00285494
0.00285504
0.00285518
0.00285535
0.00285555
0.00285576
0.00285599
0.00285624
0.00285649
0.00285672
0.00285696
0.00285717
0.00285736
0.00285748
0.00285753
0.00285751
0.00285739
0.00285718
0.00285683
0.00285636
0.00285704
0.00289153
0.00288902
0.00290712
0.00290554
0.00290366
0.00290182
0.00290012
0.00289887
0.00289798
0.00289748
0.00289734
0.00289739
0.0028778
0.00287924
0.0028425
0.00284295
0.00284355
0.0028441
0.00284458
0.00284503
0.00284546
0.00284587
0.00284625
0.00284658
0.00284688
0.00284714
0.00284737
0.00284757
0.00284775
0.0028479
0.00284803
0.00284814
0.00284822
0.00284827
0.00284831
0.00284835
0.00284836
0.00277753
0.00277758
0.00277766
0.00277778
0.00277793
0.00277812
0.00277834
0.00277859
0.00277886
0.00277915
0.00277945
0.00277975
0.00278005
0.00278034
0.00278061
0.00278083
0.002781
0.0027811
0.00278111
0.00278104
0.00278089
0.00278076
0.00278212
0.00281316
0.00281109
0.00282728
0.00282592
0.00282398
0.00282186
0.00281965
0.00281783
0.0028164
0.00281548
0.00281502
0.00281496
0.00279682
0.00279825
0.0027648
0.00276518
0.00276579
0.00276636
0.00276688
0.00276738
0.00276786
0.00276829
0.00276867
0.00276902
0.00276932
0.00276959
0.00276982
0.00277003
0.00277021
0.00277036
0.00277049
0.0027706
0.00277069
0.00277075
0.00277078
0.00277082
0.00277083
0.00270413
0.00270419
0.00270427
0.0027044
0.00270457
0.00270479
0.00270504
0.00270532
0.00270563
0.00270596
0.00270632
0.00270668
0.00270706
0.00270744
0.00270781
0.00270816
0.00270847
0.00270874
0.00270896
0.00270912
0.00270929
0.00270969
0.00271199
0.00274019
0.00273924
0.00275419
0.0027537
0.00275284
0.00275095
0.00274802
0.0027448
0.00274179
0.00273947
0.002738
0.00273742
0.00272032
0.00272173
0.00269111
0.00269137
0.00269197
0.0026926
0.00269317
0.00269372
0.00269421
0.00269465
0.00269504
0.00269539
0.0026957
0.00269597
0.0026962
0.00269641
0.00269659
0.00269675
0.00269688
0.00269699
0.00269707
0.00269713
0.00269717
0.0026972
0.00269722
0.00263434
0.0026344
0.00263449
0.00263464
0.00263482
0.00263506
0.00263534
0.00263565
0.00263601
0.00263639
0.00263681
0.00263724
0.0026377
0.00263819
0.00263867
0.00263916
0.00263966
0.00264014
0.00264064
0.00264117
0.00264186
0.00264307
0.00264675
0.00267297
0.00267455
0.00268987
0.00269393
0.00269809
0.00269932
0.00269517
0.00268802
0.00267936
0.00267188
0.00266731
0.00266494
0.00264809
0.00264939
0.00262118
0.00262132
0.00262193
0.00262258
0.00262317
0.00262372
0.00262422
0.00262466
0.00262505
0.0026254
0.00262571
0.00262598
0.00262622
0.00262643
0.00262661
0.00262676
0.0026269
0.00262701
0.00262709
0.00262715
0.00262719
0.00262722
0.00262724
0.0025679
0.00256796
0.00256806
0.00256822
0.00256842
0.00256868
0.00256899
0.00256934
0.00256974
0.00257017
0.00257065
0.00257116
0.00257171
0.0025723
0.00257292
0.00257358
0.00257428
0.00257504
0.0025759
0.00257693
0.00257837
0.00258085
0.00258662
0.00261212
0.00261909
0.00264087
0.00266149
0.00269076
0.00271101
0.00269929
0.00268639
0.00264988
0.00262094
0.00260533
0.0025983
0.00258034
0.002581
0.00255479
0.00255481
0.00255539
0.00255602
0.00255661
0.00255715
0.00255763
0.00255807
0.00255846
0.00255881
0.00255912
0.00255939
0.00255963
0.00255983
0.00256001
0.00256016
0.0025603
0.00256041
0.00256049
0.00256055
0.00256059
0.00256062
0.00256064
0.00250457
0.00250463
0.00250475
0.00250491
0.00250513
0.00250542
0.00250575
0.00250614
0.00250658
0.00250707
0.00250761
0.0025082
0.00250884
0.00250955
0.00251032
0.00251116
0.00251209
0.00251317
0.00251446
0.00251614
0.00251856
0.00252285
0.00253182
0.00255859
0.00257675
0.00262221
0.00270709
0.00283304
0.00284853
0.0028314
0.00283791
0.00273394
0.00261367
0.00255769
0.00253889
0.00251726
0.00251632
0.00249182
0.00249158
0.00249208
0.00249266
0.00249322
0.00249374
0.00249422
0.00249465
0.00249503
0.00249537
0.00249568
0.00249595
0.00249618
0.00249638
0.00249656
0.00249671
0.00249684
0.00249695
0.00249704
0.00249709
0.00249714
0.00249717
0.00249718
0.00244413
0.00244421
0.00244433
0.00244451
0.00244475
0.00244505
0.00244541
0.00244583
0.00244632
0.00244686
0.00244746
0.00244813
0.00244888
0.0024497
0.00245062
0.00245166
0.00245285
0.00245428
0.00245607
0.00245849
0.00246208
0.00246863
0.00248181
0.00251263
0.00255341
0.00265851
0.00293804
0.00560476
0.0257569
0.00776494
0.00349997
0.00302937
0.0027005
0.00253275
0.00248715
0.00245964
0.00245531
0.00243194
0.00243136
0.00243176
0.00243227
0.00243279
0.00243329
0.00243375
0.00243416
0.00243454
0.00243487
0.00243517
0.00243543
0.00243566
0.00243586
0.00243604
0.00243619
0.00243632
0.00243642
0.00243651
0.00243656
0.00243661
0.00243664
0.00243666
0.00238641
0.00238649
0.00238661
0.0023868
0.00238706
0.00238739
0.00238778
0.00238823
0.00238875
0.00238935
0.00239001
0.00239076
0.0023916
0.00239255
0.00239362
0.00239486
0.00239632
0.00239811
0.00240043
0.00240366
0.00240848
0.00241743
0.00243516
0.00247245
0.00254655
0.00275236
0.00369149
0.0444115
0.0734235
0.00477208
0.00283721
0.00252782
0.00244183
0.00240722
0.00239743
0.00237488
0.0023739
0.00237417
0.00237461
0.00237509
0.00237556
0.00237599
0.0023764
0.00237676
0.00237709
0.00237738
0.00237763
0.00237786
0.00237806
0.00237823
0.00237838
0.00237851
0.00237862
0.00237871
0.00237877
0.00237881
0.00237885
0.00237887
0.00233121
0.00233129
0.00233142
0.00233163
0.0023319
0.00233224
0.00233266
0.00233314
0.00233371
0.00233435
0.00233508
0.0023359
0.00233683
0.0023379
0.00233912
0.00234055
0.00234228
0.00234443
0.00234727
0.00235128
0.00235727
0.00236838
0.00239003
0.00243435
0.00253789
0.00284225
0.00441398
0.0451971
0.080888
0.0228614
0.00655626
0.00288421
0.00251525
0.00239812
0.00235894
0.00234231
0.00232044
0.00231906
0.0023192
0.00231957
0.00232
0.00232044
0.00232085
0.00232123
0.00232158
0.0023219
0.00232218
0.00232243
0.00232265
0.00232285
0.00232302
0.00232316
0.00232329
0.00232339
0.00232348
0.00232354
0.00232358
0.00232361
0.00232364
0.00227837
0.00227846
0.0022786
0.00227881
0.0022791
0.00227946
0.0022799
0.00228041
0.00228101
0.0022817
0.00228248
0.00228337
0.00228439
0.00228557
0.00228694
0.00228855
0.00229052
0.00229301
0.00229632
0.00230102
0.00230803
0.00232082
0.00234545
0.00239515
0.00251617
0.00287592
0.00459753
0.0368062
0.0703464
0.0479765
0.145048
0.0155078
0.00286845
0.00248619
0.00235295
0.00231304
0.00228949
0.00226831
0.00226661
0.00226664
0.00226694
0.00226733
0.00226773
0.00226812
0.00226848
0.00226882
0.00226912
0.00226939
0.00226964
0.00226985
0.00227004
0.0022702
0.00227034
0.00227047
0.00227057
0.00227065
0.00227071
0.00227075
0.00227078
0.00227081
0.00222775
0.00222784
0.00222799
0.00222821
0.00222851
0.00222888
0.00222934
0.00222988
0.00223051
0.00223124
0.00223208
0.00223303
0.00223413
0.0022354
0.0022369
0.00223867
0.00224086
0.00224362
0.00224731
0.00225256
0.00226037
0.00227427
0.00230078
0.0023533
0.00248128
0.00284629
0.00446029
0.0280303
0.0548303
0.036536
0.242911
0.0141338
0.00285323
0.00244714
0.00230586
0.00226816
0.00223861
0.00221823
0.00221632
0.00221628
0.00221654
0.00221689
0.00221727
0.00221764
0.00221798
0.0022183
0.00221859
0.00221886
0.00221909
0.0022193
0.00221948
0.00221964
0.00221977
0.00221989
0.00221999
0.00222007
0.00222013
0.00222017
0.0022202
0.00222022
0.00217921
0.0021793
0.00217945
0.00217968
0.00217999
0.00218038
0.00218086
0.00218142
0.00218208
0.00218284
0.00218372
0.00218473
0.0021859
0.00218725
0.00218885
0.00219075
0.00219309
0.00219605
0.00220004
0.0022057
0.00221416
0.00222861
0.00225606
0.00230896
0.00243738
0.00277911
0.00421592
0.0212853
0.0435504
0.0332087
0.235124
0.0126948
0.00280894
0.00240194
0.00225773
0.00222368
0.00218953
0.00217005
0.00216805
0.00216796
0.00216822
0.00216855
0.00216891
0.00216926
0.00216959
0.0021699
0.00217018
0.00217043
0.00217066
0.00217086
0.00217103
0.00217118
0.00217132
0.00217143
0.00217153
0.0021716
0.00217166
0.00217169
0.00217173
0.00217175
0.00213262
0.00213271
0.00213287
0.0021331
0.00213342
0.00213382
0.00213432
0.0021349
0.00213558
0.00213637
0.00213729
0.00213834
0.00213956
0.00214097
0.00214263
0.00214461
0.00214706
0.00215022
0.00215445
0.00216037
0.00216928
0.00218385
0.00221142
0.00226301
0.00238817
0.00270353
0.00395879
0.0166612
0.03524
0.0317296
0.194886
0.0128554
0.00274099
0.00235401
0.00221035
0.00217961
0.00214225
0.0021237
0.00212169
0.00212158
0.00212183
0.00212215
0.0021225
0.00212286
0.00212318
0.00212348
0.00212375
0.00212399
0.00212421
0.0021244
0.00212457
0.00212471
0.00212484
0.00212495
0.00212504
0.00212512
0.00212517
0.00212521
0.00212524
0.00212526
0.00208786
0.00208796
0.00208812
0.00208836
0.00208868
0.00208909
0.0020896
0.00209019
0.0020909
0.00209171
0.00209265
0.00209374
0.00209498
0.00209641
0.00209811
0.00210019
0.00210278
0.00210607
0.00211046
0.0021165
0.00212561
0.00214004
0.00216721
0.0022165
0.00233615
0.00263055
0.00372462
0.0135077
0.0291298
0.0295908
0.15071
0.0173572
0.00267257
0.00230803
0.00216487
0.00213718
0.00209677
0.00207899
0.0020771
0.00207697
0.00207722
0.00207754
0.00207791
0.00207829
0.00207863
0.00207892
0.00207918
0.00207942
0.00207963
0.00207981
0.00207997
0.00208011
0.00208024
0.00208034
0.00208043
0.0020805
0.00208055
0.00208058
0.00208061
0.00208063
0.00204483
0.00204493
0.00204509
0.00204534
0.00204566
0.00204608
0.0020466
0.0020472
0.00204792
0.00204875
0.0020497
0.0020508
0.00205205
0.00205352
0.0020553
0.00205745
0.0020601
0.00206346
0.00206792
0.00207397
0.00208313
0.00209724
0.0021237
0.0021704
0.00228335
0.00256095
0.00351792
0.0113072
0.0245836
0.0269575
0.113733
0.027563
0.00261842
0.00226679
0.00212262
0.00209763
0.00205327
0.00203613
0.00203425
0.00203408
0.00203439
0.00203474
0.0020351
0.00203547
0.00203581
0.00203611
0.00203637
0.0020366
0.0020368
0.00203698
0.00203714
0.00203727
0.00203739
0.00203749
0.00203757
0.00203764
0.00203769
0.00203772
0.00203775
0.00203777
0.00200343
0.00200353
0.0020037
0.00200394
0.00200427
0.0020047
0.00200521
0.00200583
0.00200655
0.00200738
0.00200832
0.00200941
0.0020107
0.00201223
0.00201405
0.00201623
0.00201892
0.00202229
0.00202678
0.00203275
0.0020418
0.00205552
0.00208128
0.0021251
0.00223083
0.0024935
0.00334245
0.00972883
0.0211265
0.0242992
0.0876144
0.0417928
0.00264443
0.00223101
0.0020838
0.00206256
0.00201166
0.00199497
0.00199314
0.00199296
0.00199321
0.00199359
0.00199397
0.00199431
0.00199462
0.00199493
0.00199521
0.00199545
0.00199564
0.00199581
0.00199596
0.00199609
0.0019962
0.0019963
0.00199637
0.00199644
0.00199648
0.00199652
0.00199654
0.00199656
0.00196357
0.00196367
0.00196384
0.00196408
0.00196441
0.00196484
0.00196536
0.00196598
0.00196669
0.0019675
0.00196845
0.00196957
0.00197088
0.00197243
0.00197426
0.00197644
0.00197914
0.00198249
0.00198695
0.0019928
0.00200166
0.00201498
0.00203998
0.00208106
0.00217965
0.00242855
0.00319227
0.00849655
0.0184228
0.0220555
0.0673605
0.0558308
0.00297121
0.00220067
0.0020477
0.00203293
0.00197199
0.00195548
0.0019536
0.00195346
0.00195366
0.00195398
0.00195439
0.00195474
0.00195505
0.00195533
0.0019556
0.00195584
0.00195604
0.00195621
0.00195635
0.00195647
0.00195658
0.00195667
0.00195674
0.0019568
0.00195685
0.00195688
0.0019569
0.00195692
0.00192516
0.00192526
0.00192543
0.00192567
0.00192601
0.00192643
0.00192694
0.00192755
0.00192825
0.00192907
0.00193003
0.00193116
0.00193248
0.00193402
0.00193584
0.00193802
0.0019407
0.00194401
0.0019484
0.00195408
0.00196275
0.00197564
0.00199987
0.00203849
0.00213031
0.00236681
0.00305735
0.0075206
0.0164088
0.0199742
0.0527796
0.0643267
0.00366019
0.00217406
0.00201337
0.00200842
0.00193418
0.0019177
0.00191556
0.00191545
0.00191564
0.00191593
0.00191627
0.00191664
0.00191694
0.00191721
0.00191747
0.00191771
0.00191792
0.00191809
0.00191822
0.00191834
0.00191844
0.00191852
0.00191859
0.00191865
0.00191869
0.00191872
0.00191874
0.00191876
0.00188813
0.00188823
0.00188839
0.00188864
0.00188897
0.00188938
0.00188988
0.00189047
0.00189117
0.00189201
0.00189297
0.0018941
0.00189541
0.00189694
0.00189874
0.0019009
0.00190354
0.00190679
0.00191109
0.00191661
0.00192504
0.00193747
0.00196101
0.0019975
0.00208298
0.00231014
0.00294434
0.00671866
0.0147683
0.0183939
0.0436435
0.0644442
0.00455336
0.00215011
0.00197997
0.00198716
0.00189817
0.00188163
0.00187895
0.00187885
0.00187902
0.00187931
0.00187962
0.00187993
0.00188021
0.00188047
0.00188074
0.00188098
0.00188118
0.00188136
0.00188149
0.0018816
0.0018817
0.00188178
0.00188184
0.0018819
0.00188193
0.00188196
0.00188198
0.001882
0.0018524
0.0018525