/*--------------------------------*- C++ -*----------------------------------*\
  =========                 |
  \\      /  F ield         | OpenFOAM: The Open Source CFD Toolbox
   \\    /   O peration     | Website:  https://openfoam.org
    \\  /    A nd           | Version:  12
     \\/     M anipulation  |
\*---------------------------------------------------------------------------*/
FoamFile
{
    format      ascii;
    class       volScalarField;
    location    "60";
    object      nut;
}
// * * * * * * * * * * * * * * * * * * * * * * * * * * * * * * * * * * * * * //

dimensions      [0 2 -1 0 0 0 0];

internalField   nonuniform List<scalar> 
16227
(
0.000978543
0.000978543
0.000978543
0.000978543
0.000978543
0.000978543
0.000978543
0.000978543
0.000978543
0.000978543
0.000978543
0.000978543
0.000978544
0.000978544
0.000978544
0.000978544
0.000978544
0.000978544
0.000978544
0.000978544
0.000978544
0.000978544
0.000978544
0.000978544
0.000978544
0.000978544
0.000978544
0.000978544
0.000978544
0.000978544
0.000978544
0.000978544
0.000978544
0.000978544
0.000978544
0.000978544
0.000978544
0.000978544
0.000978544
0.000978544
0.000978544
0.000978544
0.000978544
0.000978544
0.000978544
0.000978544
0.000978544
0.000978544
0.000978544
0.000978544
0.000978544
0.000978543
0.000978543
0.000978543
0.000978543
0.000978543
0.000978543
0.000978543
0.000978543
0.000978543
0.000972834
0.000972834
0.000972834
0.000972834
0.000972834
0.000972834
0.000972834
0.000972834
0.000972834
0.000972834
0.000972835
0.000972835
0.000972836
0.000972837
0.000972837
0.000972837
0.000972837
0.000972837
0.000972837
0.000972837
0.000972837
0.000972837
0.000972837
0.000972837
0.000972837
0.000972837
0.000972837
0.000972837
0.000972837
0.000972836
0.000972837
0.000972837
0.000972837
0.000972837
0.000972837
0.000972837
0.000972837
0.000972837
0.000972837
0.000972836
0.000972836
0.000972836
0.000972836
0.000972836
0.000972836
0.000972836
0.000972836
0.000972836
0.000972836
0.000972836
0.000972836
0.000972836
0.000972835
0.000972835
0.000972834
0.000972834
0.000972834
0.000972834
0.000972834
0.000972834
0.000967494
0.000967494
0.000967494
0.000967494
0.000967494
0.000967495
0.000967495
0.000967495
0.000967495
0.000967495
0.000967495
0.000967495
0.000967497
0.000967498
0.000967498
0.000967498
0.000967498
0.000967498
0.000967499
0.000967498
0.000967498
0.000967499
0.000967499
0.000967499
0.000967498
0.000967498
0.000967498
0.000967498
0.000967498
0.000967498
0.000967498
0.000967498
0.000967498
0.000967498
0.000967498
0.000967498
0.000967498
0.000967498
0.000967498
0.000967498
0.000967498
0.000967498
0.000967498
0.000967498
0.000967498
0.000967498
0.000967497
0.000967498
0.000967497
0.000967497
0.000967497
0.000967495
0.000967495
0.000967494
0.000967494
0.000967494
0.000967495
0.000967494
0.000967494
0.000967494
0.000962481
0.000962481
0.000962482
0.000962482
0.000962482
0.000962482
0.000962482
0.000962482
0.000962482
0.000962482
0.000962483
0.000962483
0.000962486
0.000962486
0.000962487
0.000962487
0.000962487
0.000962487
0.000962487
0.000962485
0.000962487
0.000962487
0.000962487
0.000962487
0.000962487
0.000962487
0.000962487
0.000962486
0.000962486
0.000962485
0.000962486
0.000962486
0.000962486
0.000962486
0.000962486
0.000962486
0.000962486
0.000962486
0.000962486
0.000962485
0.000962485
0.000962485
0.000962485
0.000962485
0.000962485
0.000962485
0.000962485
0.000962485
0.000962485
0.000962485
0.000962484
0.000962482
0.000962481
0.000962481
0.000962481
0.000962482
0.000962481
0.000962481
0.000962481
0.000962481
0.00095776
0.00095776
0.000957761
0.000957761
0.000957761
0.000957761
0.000957762
0.000957761
0.000957761
0.000957761
0.000957762
0.000957763
0.000957765
0.000957766
0.000957767
0.000957767
0.000957767
0.000957767
0.000957765
0.000957764
0.000957766
0.000957767
0.000957767
0.000957766
0.000957766
0.000957766
0.000957766
0.000957766
0.000957765
0.000957764
0.000957765
0.000957765
0.000957765
0.000957765
0.000957764
0.000957764
0.000957764
0.000957764
0.000957764
0.000957764
0.000957764
0.000957764
0.000957764
0.000957764
0.000957764
0.000957764
0.000957764
0.000957764
0.000957764
0.000957763
0.00095776
0.000957759
0.000957759
0.000957759
0.000957759
0.00095776
0.000957759
0.000957759
0.000957759
0.000957758
0.000953301
0.000953301
0.000953301
0.000953301
0.000953302
0.000953302
0.000953303
0.000953302
0.000953302
0.000953302
0.000953302
0.000953303
0.000953304
0.000953307
0.000953308
0.000953309
0.000953309
0.000953308
0.000953305
0.000953305
0.000953307
0.000953308
0.000953307
0.000953307
0.000953307
0.000953307
0.000953306
0.000953306
0.000953305
0.000953304
0.000953304
0.000953304
0.000953304
0.000953304
0.000953304
0.000953304
0.000953304
0.000953303
0.000953303
0.000953303
0.000953303
0.000953303
0.000953303
0.000953303
0.000953303
0.000953303
0.000953303
0.000953303
0.000953303
0.000953302
0.000953299
0.000953298
0.000953298
0.000953298
0.000953299
0.000953299
0.000953298
0.000953298
0.000953298
0.000953298
0.000949078
0.000949078
0.000949078
0.000949078
0.000949078
0.000949079
0.000949079
0.000949079
0.000949079
0.000949079
0.000949079
0.000949079
0.00094908
0.000949084
0.000949085
0.000949086
0.000949086
0.000949082
0.000949081
0.000949081
0.000949084
0.000949084
0.000949084
0.000949083
0.000949083
0.000949082
0.000949082
0.000949081
0.00094908
0.000949079
0.000949079
0.000949079
0.000949079
0.000949078
0.000949078
0.000949078
0.000949078
0.000949078
0.000949078
0.000949078
0.000949078
0.000949078
0.000949078
0.000949078
0.000949078
0.000949078
0.000949078
0.000949078
0.000949077
0.000949074
0.000949073
0.000949072
0.000949072
0.000949073
0.000949073
0.000949073
0.000949073
0.000949072
0.000949072
0.000949072
0.000945068
0.000945068
0.000945068
0.000945069
0.000945069
0.000945069
0.00094507
0.00094507
0.00094507
0.00094507
0.000945069
0.000945069
0.00094507
0.000945072
0.000945076
0.000945077
0.000945076
0.000945072
0.000945071
0.000945071
0.000945074
0.000945074
0.000945073
0.000945073
0.000945072
0.000945071
0.00094507
0.000945069
0.000945068
0.000945066
0.000945067
0.000945066
0.000945066
0.000945066
0.000945065
0.000945065
0.000945065
0.000945065
0.000945065
0.000945065
0.000945065
0.000945065
0.000945065
0.000945065
0.000945065
0.000945065
0.000945066
0.000945066
0.000945064
0.000945061
0.000945059
0.000945059
0.00094506
0.00094506
0.000945061
0.000945061
0.00094506
0.00094506
0.00094506
0.000945059
0.000941253
0.000941253
0.000941253
0.000941253
0.000941254
0.000941254
0.000941255
0.000941255
0.000941255
0.000941255
0.000941254
0.000941254
0.000941254
0.000941256
0.000941261
0.000941262
0.00094126
0.000941257
0.000941255
0.000941255
0.000941258
0.000941258
0.000941257
0.000941256
0.000941255
0.000941254
0.000941252
0.000941251
0.00094125
0.000941247
0.000941248
0.000941247
0.000941247
0.000941246
0.000941246
0.000941245
0.000941245
0.000941245
0.000941245
0.000941245
0.000941245
0.000941246
0.000941246
0.000941246
0.000941246
0.000941247
0.000941247
0.000941246
0.000941242
0.000941241
0.00094124
0.00094124
0.000941241
0.000941241
0.000941242
0.000941242
0.000941241
0.000941241
0.000941241
0.000941241
0.000937616
0.000937616
0.000937616
0.000937616
0.000937616
0.000937616
0.000937617
0.000937617
0.000937618
0.000937618
0.000937617
0.000937617
0.000937617
0.000937619
0.000937623
0.000937624
0.000937621
0.000937618
0.000937617
0.000937617
0.000937619
0.000937619
0.000937618
0.000937616
0.000937615
0.000937613
0.000937612
0.00093761
0.000937608
0.000937605
0.000937605
0.000937605
0.000937604
0.000937603
0.000937603
0.000937602
0.000937602
0.000937602
0.000937602
0.000937602
0.000937602
0.000937603
0.000937603
0.000937603
0.000937604
0.000937604
0.000937604
0.000937603
0.000937599
0.000937598
0.000937598
0.000937598
0.000937599
0.000937599
0.0009376
0.0009376
0.000937599
0.000937599
0.000937599
0.000937599
0.000934141
0.000934141
0.000934141
0.000934141
0.000934142
0.000934142
0.000934143
0.000934143
0.000934143
0.000934143
0.000934143
0.000934142
0.000934142
0.000934143
0.000934145
0.000934148
0.000934145
0.000934143
0.000934142
0.000934141
0.000934143
0.000934143
0.000934141
0.000934139
0.000934137
0.000934135
0.000934133
0.000934131
0.000934128
0.000934125
0.000934125
0.000934124
0.000934123
0.000934122
0.000934121
0.000934121
0.00093412
0.00093412
0.00093412
0.000934121
0.000934121
0.000934121
0.000934122
0.000934123
0.000934123
0.000934123
0.000934123
0.000934121
0.000934118
0.000934117
0.000934117
0.000934118
0.000934119
0.000934119
0.00093412
0.00093412
0.00093412
0.000934119
0.000934119
0.000934119
0.000930816
0.000930816
0.000930816
0.000930816
0.000930817
0.000930817
0.000930818
0.000930818
0.000930818
0.000930818
0.000930818
0.000930818
0.000930817
0.000930818
0.000930819
0.000930822
0.000930819
0.000930818
0.000930816
0.000930815
0.000930814
0.000930815
0.000930814
0.000930811
0.000930809
0.000930806
0.000930803
0.0009308
0.000930797
0.000930794
0.000930793
0.000930792
0.00093079
0.000930789
0.000930788
0.000930788
0.000930787
0.000930787
0.000930787
0.000930788
0.000930788
0.000930789
0.00093079
0.00093079
0.000930791
0.000930791
0.000930789
0.000930788
0.000930787
0.000930786
0.000930786
0.000930787
0.000930788
0.000930788
0.000930789
0.000930789
0.000930789
0.000930788
0.000930789
0.000930789
0.000927629
0.000927629
0.000927629
0.000927629
0.00092763
0.00092763
0.000927631
0.000927632
0.000927632
0.000927632
0.000927632
0.000927632
0.000927631
0.00092763
0.000927631
0.000927632
0.000927632
0.00092763
0.000927629
0.000927627
0.000927625
0.000927626
0.000927625
0.000927621
0.000927618
0.000927615
0.000927611
0.000927608
0.000927604
0.0009276
0.000927598
0.000927597
0.000927595
0.000927593
0.000927592
0.000927592
0.000927591
0.000927591
0.000927592
0.000927592
0.000927593
0.000927594
0.000927594
0.000927595
0.000927596
0.000927595
0.000927593
0.000927593
0.000927592
0.000927592
0.000927592
0.000927593
0.000927594
0.000927594
0.000927595
0.000927596
0.000927595
0.000927595
0.000927595
0.000927595
0.00092457
0.00092457
0.00092457
0.000924571
0.000924571
0.000924572
0.000924572
0.000924573
0.000924573
0.000924574
0.000924574
0.000924573
0.000924573
0.000924572
0.000924572
0.000924572
0.000924573
0.000924572
0.000924569
0.000924567
0.000924565
0.000924566
0.000924563
0.000924559
0.000924555
0.000924551
0.000924546
0.000924542
0.000924537
0.000924532
0.00092453
0.000924528
0.000924526
0.000924524
0.000924523
0.000924522
0.000924522
0.000924522
0.000924522
0.000924523
0.000924524
0.000924525
0.000924526
0.000924527
0.000924527
0.000924526
0.000924525
0.000924525
0.000924525
0.000924524
0.000924525
0.000924526
0.000924527
0.000924528
0.000924529
0.000924529
0.000924529
0.000924529
0.000924529
0.000924529
0.000921629
0.00092163
0.00092163
0.00092163
0.000921631
0.000921631
0.000921632
0.000921633
0.000921634
0.000921634
0.000921634
0.000921634
0.000921633
0.000921633
0.000921632
0.000921633
0.000921633
0.000921632
0.000921629
0.000921627
0.000921623
0.000921624
0.00092162
0.000921616
0.00092161
0.000921605
0.0009216
0.000921594
0.000921589
0.000921583
0.00092158
0.000921577
0.000921575
0.000921573
0.000921571
0.00092157
0.00092157
0.00092157
0.000921571
0.000921571
0.000921572
0.000921574
0.000921575
0.000921575
0.000921574
0.000921574
0.000921575
0.000921575
0.000921575
0.000921575
0.000921576
0.000921577
0.000921578
0.000921579
0.00092158
0.000921581
0.000921581
0.000921581
0.000921581
0.000921581
0.000918799
0.000918799
0.0009188
0.0009188
0.000918801
0.000918802
0.000918803
0.000918804
0.000918804
0.000918805
0.000918805
0.000918805
0.000918805
0.000918804
0.000918804
0.000918804
0.000918805
0.000918803
0.0009188
0.000918797
0.000918793
0.000918792
0.000918788
0.000918782
0.000918776
0.00091877
0.000918763
0.000918757
0.00091875
0.000918743
0.00091874
0.000918736
0.000918733
0.00091873
0.000918728
0.000918727
0.000918727
0.000918727
0.000918728
0.000918729
0.00091873
0.000918732
0.000918733
0.000918733
0.000918732
0.000918733
0.000918734
0.000918734
0.000918734
0.000918735
0.000918736
0.000918738
0.000918739
0.00091874
0.000918741
0.000918742
0.000918742
0.000918742
0.000918742
0.000918742
0.000916072
0.000916072
0.000916073
0.000916073
0.000916074
0.000916075
0.000916076
0.000916077
0.000916078
0.000916079
0.00091608
0.00091608
0.00091608
0.000916079
0.000916079
0.000916079
0.00091608
0.000916078
0.000916074
0.00091607
0.000916066
0.000916061
0.000916059
0.000916053
0.000916045
0.000916038
0.00091603
0.000916022
0.000916014
0.000916006
0.000916001
0.000915997
0.000915993
0.00091599
0.000915988
0.000915986
0.000915986
0.000915986
0.000915987
0.000915988
0.00091599
0.000915992
0.000915992
0.000915992
0.000915992
0.000915994
0.000915995
0.000915995
0.000915996
0.000915997
0.000915999
0.000916001
0.000916002
0.000916003
0.000916005
0.000916005
0.000916005
0.000916006
0.000916006
0.000916006
0.00091344
0.000913441
0.000913441
0.000913442
0.000913443
0.000913444
0.000913446
0.000913447
0.000913448
0.00091345
0.00091345
0.000913451
0.000913451
0.000913451
0.000913451
0.000913451
0.000913452
0.00091345
0.000913446
0.000913441
0.000913436
0.00091343
0.000913427
0.000913421
0.000913412
0.000913402
0.000913393
0.000913384
0.000913374
0.000913364
0.000913359
0.000913353
0.000913348
0.000913344
0.000913342
0.00091334
0.00091334
0.00091334
0.000913341
0.000913343
0.000913345
0.000913346
0.000913345
0.000913346
0.000913348
0.00091335
0.000913351
0.000913352
0.000913353
0.000913355
0.000913357
0.000913359
0.000913361
0.000913362
0.000913363
0.000913364
0.000913364
0.000913365
0.000913365
0.000913365
0.000910899
0.000910899
0.0009109
0.000910901
0.000910902
0.000910903
0.000910905
0.000910907
0.000910909
0.00091091
0.000910912
0.000910913
0.000910913
0.000910914
0.000910914
0.000910914
0.000910915
0.000910913
0.00091091
0.000910905
0.000910899
0.000910892
0.000910887
0.00091088
0.00091087
0.000910859
0.000910848
0.000910836
0.000910825
0.000910814
0.000910806
0.000910799
0.000910793
0.000910789
0.000910785
0.000910784
0.000910783
0.000910783
0.000910785
0.000910786
0.000910788
0.000910789
0.000910789
0.00091079
0.000910793
0.000910795
0.000910796
0.000910798
0.0009108
0.000910802
0.000910804
0.000910806
0.000910808
0.00091081
0.000910811
0.000910812
0.000910813
0.000910813
0.000910813
0.000910814
0.000908441
0.000908442
0.000908443
0.000908444
0.000908445
0.000908447
0.000908449
0.000908452
0.000908454
0.000908456
0.000908458
0.00090846
0.000908461
0.000908462
0.000908463
0.000908463
0.000908464
0.000908463
0.00090846
0.000908455
0.000908448
0.000908441
0.000908433
0.000908426
0.000908416
0.000908403
0.00090839
0.000908376
0.000908363
0.000908349
0.000908339
0.000908331
0.000908323
0.000908317
0.000908313
0.000908311
0.00090831
0.00090831
0.000908311
0.000908312
0.000908313
0.000908314
0.000908316
0.000908319
0.000908322
0.000908324
0.000908326
0.000908328
0.000908331
0.000908333
0.000908336
0.000908338
0.00090834
0.000908342
0.000908343
0.000908344
0.000908345
0.000908345
0.000908346
0.000908346
0.000906063
0.000906064
0.000906065
0.000906066
0.000906068
0.00090607
0.000906073
0.000906076
0.000906079
0.000906081
0.000906084
0.000906087
0.000906089
0.000906091
0.000906092
0.000906093
0.000906094
0.000906094
0.000906092
0.000906087
0.000906081
0.000906073
0.000906064
0.000906058
0.000906046
0.000906032
0.000906016
0.000906
0.000905984
0.000905967
0.000905955
0.000905943
0.000905933
0.000905926
0.00090592
0.000905917
0.000905916
0.000905915
0.000905916
0.000905917
0.000905917
0.000905919
0.000905922
0.000905926
0.000905929
0.000905931
0.000905934
0.000905937
0.00090594
0.000905943
0.000905946
0.000905948
0.00090595
0.000905952
0.000905954
0.000905955
0.000905956
0.000905956
0.000905957
0.000905957
0.000903759
0.00090376
0.000903761
0.000903763
0.000903765
0.000903768
0.000903771
0.000903775
0.000903778
0.000903782
0.000903786
0.000903789
0.000903792
0.000903796
0.000903798
0.0009038
0.000903802
0.000903804
0.000903803
0.000903799
0.000903794
0.000903787
0.000903778
0.000903772
0.00090376
0.000903745
0.000903727
0.000903708
0.000903688
0.000903667
0.000903651
0.000903635
0.000903622
0.000903611
0.000903604
0.000903599
0.000903596
0.000903594
0.000903595
0.000903596
0.000903597
0.0009036
0.000903604
0.000903608
0.000903611
0.000903613
0.000903616
0.00090362
0.000903624
0.000903627
0.00090363
0.000903632
0.000903635
0.000903637
0.000903639
0.00090364
0.000903641
0.000903642
0.000903642
0.000903642
0.000901526
0.000901526
0.000901528
0.00090153
0.000901532
0.000901536
0.00090154
0.000901544
0.000901549
0.000901554
0.000901558
0.000901563
0.000901568
0.000901573
0.000901577
0.00090158
0.000901584
0.000901588
0.000901589
0.000901588
0.000901585
0.00090158
0.000901574
0.000901567
0.000901564
0.000901547
0.000901527
0.000901505
0.000901481
0.000901455
0.000901432
0.000901411
0.000901392
0.000901376
0.000901365
0.000901358
0.000901347
0.000901344
0.000901343
0.000901344
0.000901347
0.00090135
0.000901355
0.000901359
0.000901362
0.000901365
0.000901369
0.000901373
0.000901377
0.000901381
0.000901384
0.000901387
0.00090139
0.000901392
0.000901394
0.000901395
0.000901396
0.000901397
0.000901397
0.000901398
0.000899358
0.000899359
0.000899361
0.000899363
0.000899366
0.00089937
0.000899375
0.00089938
0.000899386
0.000899392
0.000899398
0.000899405
0.000899412
0.000899418
0.000899425
0.000899431
0.000899437
0.000899443
0.000899448
0.000899452
0.000899453
0.000899454
0.000899453
0.000899469
0.000900464
0.000900452
0.000900431
0.000900408
0.000900381
0.000900351
0.000900325
0.000900299
0.000900276
0.000900257
0.000900243
0.000900232
0.000899177
0.000899161
0.000899159
0.00089916
0.000899164
0.000899168
0.000899172
0.000899175
0.000899179
0.000899184
0.000899188
0.000899193
0.000899197
0.000899201
0.000899204
0.000899208
0.00089921
0.000899213
0.000899215
0.000899216
0.000899217
0.000899218
0.000899219
0.000899219
0.000897253
0.000897254
0.000897256
0.000897259
0.000897262
0.000897267
0.000897273
0.000897279
0.000897286
0.000897294
0.000897302
0.000897311
0.00089732
0.000897329
0.000897339
0.000897348
0.000897358
0.000897368
0.000897379
0.00089739
0.0008974
0.00089741
0.000897434
0.000898414
0.000898348
0.00089835
0.000898333
0.000898309
0.000898277
0.000898238
0.000898198
0.000898157
0.00089812
0.000898088
0.000898064
0.000898044
0.000898085
0.000897049
0.000897042
0.000897042
0.000897044
0.000897048
0.000897052
0.000897056
0.00089706
0.000897065
0.00089707
0.000897075
0.00089708
0.000897084
0.000897088
0.000897091
0.000897094
0.000897096
0.000897098
0.0008971
0.000897101
0.000897102
0.000897103
0.000897103
0.000895206
0.000895208
0.00089521
0.000895213
0.000895218
0.000895223
0.00089523
0.000895238
0.000895247
0.000895256
0.000895266
0.000895277
0.000895289
0.000895302
0.000895315
0.00089533
0.000895345
0.000895362
0.000895381
0.000895403
0.000895427
0.000895455
0.000895511
0.000896392
0.000896355
0.000896844
0.000896834
0.000896813
0.000896779
0.000896731
0.000896678
0.00089662
0.000896563
0.000896514
0.000896476
0.000895938
0.000895961
0.000895
0.000894986
0.000894984
0.000894985
0.000894988
0.000894992
0.000894996
0.000895001
0.000895006
0.000895012
0.000895017
0.000895022
0.000895026
0.00089503
0.000895033
0.000895037
0.000895039
0.000895042
0.000895043
0.000895044
0.000895045
0.000895046
0.000895046
0.000893216
0.000893218
0.00089322
0.000893224
0.000893229
0.000893236
0.000893244
0.000893253
0.000893263
0.000893275
0.000893288
0.000893302
0.000893317
0.000893334
0.000893353
0.000893373
0.000893396
0.000893423
0.000893454
0.000893492
0.00089354
0.0008936
0.000893703
0.0008945
0.000894512
0.000894957
0.000894979
0.000894979
0.00089495
0.000894889
0.000894802
0.000894701
0.000894596
0.000894501
0.000894423
0.000893908
0.000893906
0.000893013
0.000892991
0.000892984
0.000892984
0.000892985
0.000892988
0.000892993
0.000892999
0.000893004
0.00089301
0.000893015
0.00089302
0.000893025
0.000893029
0.000893032
0.000893036
0.000893038
0.000893041
0.000893043
0.000893044
0.000893045
0.000893045
0.000893046
0.000891279
0.00089128
0.000891283
0.000891288
0.000891294
0.000891301
0.000891311
0.000891322
0.000891334
0.000891348
0.000891363
0.000891381
0.000891401
0.000891423
0.000891448
0.000891477
0.000891511
0.000891551
0.0008916
0.000891662
0.000891746
0.000891861
0.000892042
0.000892782
0.000892895
0.000893339
0.000893454
0.000893536
0.000893542
0.00089345
0.000893279
0.000893062
0.000892838
0.000892641
0.000892486
0.000891944
0.000891926
0.000891087
0.000891054
0.00089104
0.000891036
0.000891036
0.000891039
0.000891044
0.00089105
0.000891056
0.000891062
0.000891067
0.000891072
0.000891077
0.000891081
0.000891085
0.000891088
0.000891091
0.000891093
0.000891095
0.000891096
0.000891097
0.000891098
0.000891099
0.000889391
0.000889393
0.000889397
0.000889402
0.000889409
0.000889418
0.000889428
0.000889441
0.000889455
0.000889472
0.000889491
0.000889513
0.000889537
0.000889566
0.000889599
0.000889639
0.000889686
0.000889745
0.00088982
0.000889919
0.00089006
0.000890263
0.000890577
0.000891309
0.000891649
0.000892193
0.000892607
0.000893003
0.000893182
0.000893039
0.000892625
0.000892064
0.0008915
0.000891039
0.00089071
0.000890058
0.00089003
0.000889219
0.000889172
0.000889149
0.000889142
0.00088914
0.000889143
0.000889148
0.000889153
0.000889159
0.000889165
0.00088917
0.000889175
0.00088918
0.000889184
0.000889188
0.000889192
0.000889194
0.000889197
0.000889199
0.0008892
0.000889201
0.000889202
0.000889202
0.000887552
0.000887554
0.000887558
0.000887564
0.000887572
0.000887582
0.000887594
0.000887608
0.000887625
0.000887645
0.000887668
0.000887694
0.000887725
0.000887761
0.000887804
0.000887856
0.000887921
0.000888005
0.000888116
0.000888268
0.000888494
0.000888841
0.000889381
0.000890205
0.000891033
0.000892009
0.000893425
0.000895003
0.000895976
0.000895723
0.000894565
0.000892822
0.00089114
0.000889938
0.00088919
0.000888272
0.000888222
0.00088741
0.000887344
0.000887311
0.000887299
0.000887295
0.000887296
0.0008873
0.000887305
0.000887311
0.000887317
0.000887322
0.000887327
0.000887332
0.000887336
0.00088734
0.000887343
0.000887346
0.000887349
0.000887351
0.000887352
0.000887353
0.000887354
0.000887354
0.000885758
0.00088576
0.000885765
0.000885771
0.00088578
0.000885791
0.000885805
0.000885822
0.000885842
0.000885865
0.000885891
0.000885923
0.00088596
0.000886005
0.00088606
0.000886127
0.000886214
0.000886329
0.000886487
0.000886713
0.00088706
0.000887629
0.000888546
0.00088966
0.000891514
0.000894063
0.000898927
0.000905704
0.000910696
0.000909157
0.000906843
0.000899519
0.000893404
0.000889876
0.000888108
0.000886651
0.000886509
0.000885658
0.000885568
0.000885523
0.000885504
0.000885497
0.000885497
0.000885499
0.000885504
0.000885509
0.000885515
0.00088552
0.000885525
0.00088553
0.000885534
0.000885538
0.000885542
0.000885545
0.000885547
0.000885549
0.00088555
0.000885551
0.000885552
0.000885553
0.000884007
0.00088401
0.000884014
0.000884022
0.000884032
0.000884044
0.00088406
0.000884079
0.000884102
0.000884128
0.00088416
0.000884197
0.000884242
0.000884296
0.000884364
0.00088445
0.000884563
0.000884716
0.000884933
0.000885254
0.000885763
0.000886649
0.000888155
0.000889902
0.000893964
0.000901419
0.000919159
0.000642432
0.000375079
0.000419206
0.000371379
0.000574569
0.000903712
0.000891991
0.000887735
0.000885313
0.000884894
0.000883967
0.000883839
0.000883781
0.000883754
0.000883744
0.000883741
0.000883743
0.000883747
0.000883752
0.000883757
0.000883763
0.000883768
0.000883772
0.000883777
0.00088378
0.000883784
0.000883787
0.000883789
0.000883791
0.000883793
0.000883794
0.000883794
0.000883795
0.000882297
0.0008823
0.000882306
0.000882314
0.000882325
0.000882339
0.000882357
0.000882378
0.000882403
0.000882434
0.00088247
0.000882514
0.000882567
0.000882632
0.000882715
0.000882821
0.000882964
0.000883161
0.000883448
0.000883884
0.000884587
0.000885882
0.000888191
0.000891048
0.000899628
0.000919161
0.000808365
0.000325721
0.000304788
7.73792e-05
0.000140459
0.000222257
0.000637391
0.000897988
0.000888271
0.000884416
0.000883369
0.00088233
0.000882153
0.000882081
0.000882047
0.000882033
0.000882028
0.000882029
0.000882032
0.000882037
0.000882042
0.000882047
0.000882052
0.000882057
0.000882061
0.000882065
0.000882068
0.000882071
0.000882074
0.000882076
0.000882077
0.000882078
0.000882079
0.000882079
0.000880627
0.00088063
0.000880636
0.000880645
0.000880657
0.000880673
0.000880693
0.000880716
0.000880745
0.000880779
0.000880821
0.000880871
0.000880933
0.00088101
0.000881109
0.000881238
0.000881413
0.000881659
0.000882022
0.000882587
0.0008835
0.000885246
0.000888449
0.000892864
0.000908244
0.000947907
0.000728626
0.00225158
0.00087481
6.6075e-05
0.000513146
0.000907448
0.000889463
0.000884018
0.000881904
0.00088074
0.000880505
0.000880419
0.000880377
0.000880361
0.000880354
0.000880354
0.000880357
0.000880361
0.000880366
0.000880371
0.000880376
0.000880381
0.000880385
0.000880389
0.000880392
0.000880395
0.000880398
0.0008804
0.000880401
0.000880402
0.000880403
0.000880404
0.000878995
0.000878998
0.000879005
0.000879014
0.000879028
0.000879045
0.000879066
0.000879093
0.000879125
0.000879163
0.00087921
0.000879267
0.000879338
0.000879428
0.000879543
0.000879696
0.000879905
0.000880202
0.000880643
0.000881339
0.000882461
0.000884632
0.000888651
0.000894747
0.000916311
0.00097574
0.00110943
0.00234466
0.00153014
0.00010367
0.000269514
0.000921684
0.000914966
0.000890488
0.000883977
0.000880461
0.00087919
0.000878892
0.000878795
0.000878746
0.000878728
0.00087872
0.000878719
0.000878721
0.000878725
0.00087873
0.000878735
0.000878739
0.000878744
0.000878748
0.000878752
0.000878755
0.000878758
0.000878761
0.000878763
0.000878764
0.000878765
0.000878766
0.000878767
0.000877398
0.000877402
0.000877409
0.00087742
0.000877434
0.000877453
0.000877477
0.000877506
0.000877541
0.000877584
0.000877636
0.0008777
0.00087778
0.000877882
0.000878015
0.000878191
0.000878434
0.000878781
0.000879298
0.000880117
0.000881432
0.000883953
0.000888631
0.000896142
0.000921618
0.00099295
0.0012024
0.00235016
0.00204225
0.000742916
0.00337696
0.000466205
0.00092726
0.000918973
0.000890789
0.000884038
0.000879013
0.000877666
0.000877312
0.000877204
0.000877151
0.000877131
0.000877122
0.000877121
0.000877123
0.000877126
0.000877131
0.000877135
0.00087714
0.000877144
0.000877148
0.000877152
0.000877155
0.000877158
0.000877161
0.000877163
0.000877164
0.000877165
0.000877166
0.000877167
0.000875837
0.000875841
0.000875848
0.00087586
0.000875875
0.000875896
0.000875921
0.000875953
0.000875992
0.000876039
0.000876096
0.000876168
0.000876257
0.000876371
0.00087652
0.00087672
0.000876995
0.000877389
0.000877974
0.000878899
0.000880383
0.000883151
0.000888309
0.00089676
0.000924135
0.000998073
0.00121372
0.00227304
0.00218948
0.000903926
0.00520935
0.000526342
0.00093848
0.000920768
0.000890336
0.000883972
0.000877547
0.000876161
0.000875762
0.000875645
0.00087559
0.000875568
0.000875559
0.000875558
0.000875559
0.000875563
0.000875567
0.000875572
0.000875576
0.00087558
0.000875584
0.000875588
0.000875591
0.000875594
0.000875596
0.000875598
0.0008756
0.000875601
0.000875602
0.000875602
0.000874308
0.000874313
0.000874321
0.000874333
0.00087435
0.000874372
0.000874399
0.000874434
0.000874475
0.000874527
0.00087459
0.000874668
0.000874766
0.000874892
0.000875057
0.000875277
0.000875581
0.000876016
0.000876661
0.00087767
0.000879296
0.000882216
0.000887685
0.000896608
0.000924628
0.00099571
0.00120702
0.0021542
0.00225497
0.00118386
0.00573153
0.000587645
0.000945092
0.000921143
0.000889299
0.000883637
0.000876066
0.000874669
0.000874241
0.000874117
0.000874061
0.000874039
0.000874029
0.000874028
0.00087403
0.000874033
0.000874037
0.000874042
0.000874046
0.00087405
0.000874054
0.000874057
0.000874061
0.000874063
0.000874066
0.000874068
0.000874069
0.00087407
0.000874071
0.000874072
0.000872812
0.000872817
0.000872825
0.000872838
0.000872856
0.00087288
0.000872909
0.000872946
0.000872991
0.000873046
0.000873115
0.000873199
0.000873306
0.000873443
0.000873621
0.00087386
0.00087419
0.00087466
0.000875356
0.000876428
0.000878163
0.000881165
0.000886804
0.000895843
0.000923793
0.000991287
0.00119243
0.00203251
0.00225539
0.00142408
0.00551344
0.000670104
0.000946103
0.000920639
0.00088813
0.000883094
0.000874588
0.000873191
0.000872751
0.00087262
0.000872563
0.000872541
0.000872532
0.000872531
0.000872533
0.000872536
0.000872541
0.000872545
0.000872549
0.000872553
0.000872557
0.00087256
0.000872563
0.000872565
0.000872568
0.00087257
0.000872571
0.000872572
0.000872573
0.000872574
0.000871346
0.000871351
0.00087136
0.000871374
0.000871393
0.000871418
0.000871449
0.000871489
0.000871537
0.000871596
0.000871669
0.00087176
0.000871874
0.00087202
0.000872211
0.000872467
0.000872821
0.000873321
0.000874057
0.00087517
0.000876985
0.000880023
0.000885735
0.00089467
0.000922087
0.000986918
0.00117561
0.00192348
0.00221989
0.00156643
0.00499901
0.000908708
0.000944093
0.000920265
0.000886988
0.000882534
0.000873145
0.000871728
0.00087129
0.000871152
0.000871095
0.000871073
0.000871064
0.000871065
0.000871067
0.000871071
0.000871075
0.000871079
0.000871083
0.000871087
0.00087109
0.000871094
0.000871097
0.000871099
0.000871101
0.000871103
0.000871104
0.000871105
0.000871106
0.000871107
0.00086991
0.000869915
0.000869925
0.000869939
0.000869959
0.000869986
0.000870019
0.00087006
0.000870111
0.000870174
0.000870251
0.000870348
0.000870468
0.000870623
0.000870827
0.000871099
0.000871471
0.000871993
0.000872761
0.000873901
0.000875768
0.000878815
0.000884545
0.00089328
0.000919875
0.00098274
0.00115893
0.00183083
0.00217358
0.00163721
0.00441066
0.00141646
0.000939255
0.000920587
0.000886228
0.000882305
0.000871751
0.000870293
0.000869862
0.000869717
0.000869659
0.000869637
0.000869628
0.000869629
0.000869631
0.000869635
0.00086964
0.000869644
0.000869648
0.000869651
0.000869654
0.000869657
0.00086966
0.000869663
0.000869665
0.000869666
0.000869667
0.000869668
0.000869669
0.00086967
0.000868502
0.000868508
0.000868518
0.000868533
0.000868554
0.000868582
0.000868617
0.00086866
0.000868714
0.000868779
0.00086886
0.00086896