/*--------------------------------*- C++ -*----------------------------------*\
  =========                 |
  \\      /  F ield         | OpenFOAM: The Open Source CFD Toolbox
   \\    /   O peration     | Website:  https://openfoam.org
    \\  /    A nd           | Version:  12
     \\/     M anipulation  |
\*---------------------------------------------------------------------------*/
FoamFile
{
    format      ascii;
    class       volScalarField;
    location    "60";
    object      omega;
}
// * * * * * * * * * * * * * * * * * * * * * * * * * * * * * * * * * * * * * //

dimensions      [0 0 -1 0 0 0 0];

internalField   nonuniform List<scalar> 
16227
(
9.34702
9.34704
9.34703
9.34707
9.34706
9.3471
9.34709
9.34707
9.34707
9.34709
9.34713
9.34715
9.3472
9.3472
9.3472
9.3472
9.3472
9.3472
9.3472
9.3472
9.3472
9.3472
9.3472
9.3472
9.3472
9.3472
9.3472
9.34722
9.34722
9.3472
9.34721
9.3472
9.3472
9.3472
9.34721
9.3472
9.3472
9.3472
9.3472
9.3472
9.3472
9.3472
9.3472
9.3472
9.3472
9.3472
9.3472
9.34719
9.34717
9.34717
9.34717
9.34716
9.3471
9.3471
9.34706
9.34705
9.34707
9.34705
9.34703
9.34702
8.71805
8.71808
8.71807
8.7181
8.71811
8.71814
8.71813
8.7181
8.71812
8.71813
8.71818
8.7182
8.71834
8.71839
8.71841
8.71841
8.71841
8.71841
8.71841
8.71841
8.71842
8.71843
8.71843
8.71843
8.71843
8.71843
8.71843
8.71842
8.71841
8.71836
8.71841
8.71843
8.71843
8.71843
8.71842
8.71841
8.7184
8.7184
8.7184
8.7184
8.7184
8.7184
8.7184
8.71839
8.71839
8.71837
8.71838
8.71838
8.71838
8.71836
8.71834
8.71829
8.71817
8.71816
8.71812
8.7181
8.71814
8.71806
8.71808
8.71805
8.1662
8.16622
8.16622
8.16624
8.16623
8.16632
8.16628
8.16627
8.16628
8.16629
8.16633
8.16635
8.16659
8.16665
8.16666
8.16667
8.16667
8.16667
8.16669
8.16664
8.16667
8.16668
8.16668
8.16668
8.16667
8.16667
8.16667
8.16667
8.16666
8.16659
8.16665
8.16666
8.16666
8.16666
8.16666
8.16666
8.16666
8.16665
8.16663
8.16664
8.16664
8.16664
8.16663
8.16662
8.16662
8.16662
8.16661
8.16661
8.1666
8.16658
8.16655
8.16636
8.16628
8.16627
8.16625
8.16625
8.16628
8.16619
8.1662
8.16618
7.67833
7.67835
7.67835
7.67837
7.67837
7.67844
7.67844
7.67841
7.67842
7.67842
7.67847
7.67852
7.67878
7.67885
7.67887
7.67889
7.6789
7.67891
7.67885
7.67873
7.67884
7.67887
7.67886
7.67887
7.67887
7.67886
7.67885
7.67884
7.67882
7.67873
7.6788
7.67881
7.6788
7.6788
7.67879
7.6788
7.6788
7.67879
7.67879
7.67878
7.67879
7.67878
7.67877
7.67878
7.67877
7.67877
7.67877
7.67876
7.67877
7.67874
7.67862
7.67844
7.67834
7.67836
7.67836
7.67837
7.67835
7.67828
7.67828
7.67826
7.24411
7.24413
7.24413
7.24415
7.24416
7.24422
7.24425
7.24419
7.24421
7.24421
7.24426
7.24432
7.24456
7.24469
7.24471
7.24471
7.24472
7.2447
7.2445
7.24443
7.24461
7.24467
7.24467
7.24465
7.24463
7.24462
7.2446
7.24459
7.24455
7.24445
7.24452
7.24454
7.24454
7.24452
7.24451
7.24451
7.24451
7.24452
7.24451
7.24451
7.24452
7.24452
7.24451
7.24451
7.24451
7.24452
7.24451
7.24451
7.24451
7.24443
7.2442
7.24409
7.24401
7.24405
7.24406
7.24411
7.24405
7.24398
7.24398
7.24396
6.85529
6.85532
6.85531
6.85533
6.85534
6.85539
6.85543
6.85539
6.85538
6.85538
6.8554
6.85544
6.85556
6.85585
6.85592
6.85594
6.85594
6.85584
6.85561
6.85557
6.85578
6.85583
6.85581
6.85578
6.85576
6.85574
6.85571
6.85568
6.85563
6.85552
6.85558
6.85559
6.85558
6.85557
6.85557
6.85556
6.85556
6.85556
6.85556
6.85556
6.85557
6.85557
6.85557
6.85559
6.85558
6.85559
6.85559
6.8556
6.85559
6.85545
6.85522
6.85511
6.85508
6.85512
6.85517
6.85516
6.85511
6.85505
6.85505
6.85503
6.50522
6.50524
6.50524
6.50525
6.50526
6.50531
6.50535
6.50535
6.50532
6.50532
6.50532
6.50533
6.50544
6.50571
6.50585
6.50587
6.50585
6.50557
6.50545
6.50544
6.50565
6.50569
6.50565
6.50562
6.50558
6.50554
6.50549
6.50545
6.5054
6.50526
6.50532
6.50532
6.5053
6.50529
6.50529
6.50528
6.50527
6.50528
6.50529
6.5053
6.5053
6.50532
6.50533
6.50533
6.50535
6.50536
6.50536
6.50537
6.5053
6.50504
6.50492
6.50484
6.50484
6.50492
6.50493
6.50492
6.50488
6.50482
6.50483
6.50481
6.18847
6.18847
6.18848
6.1885
6.1885
6.18854
6.18859
6.1886
6.18857
6.18855
6.18854
6.18852
6.18858
6.18872
6.18902
6.18911
6.18905
6.18872
6.18862
6.18861
6.18882
6.18885
6.18879
6.18873
6.18867
6.18861
6.18855
6.18849
6.1884
6.18826
6.18831
6.18831
6.18829
6.18827
6.18825
6.18825
6.18825
6.18825
6.18826
6.18828
6.1883
6.18831
6.18833
6.18835
6.18837
6.18838
6.1884
6.1884
6.18827
6.18803
6.18791
6.18788
6.18793
6.18797
6.18797
6.18797
6.18793
6.18788
6.18789
6.18788
5.90055
5.90056
5.90057
5.90058
5.90059
5.90062
5.90066
5.90067
5.90068
5.90064
5.90062
5.90058
5.90062
5.90073
5.90108
5.90118
5.90104
5.90073
5.90064
5.90061
5.90081
5.90081
5.90073
5.90065
5.90057
5.90049
5.9004
5.90032
5.90022
5.90005
5.90009
5.90007
5.90004
5.90002
5.9
5.9
5.9
5.90002
5.90003
5.90004
5.90007
5.90011
5.90013
5.90015
5.90018
5.90022
5.90023
5.90016
5.8999
5.89978
5.89971
5.89975
5.89978
5.89982
5.89983
5.89983
5.89981
5.89976
5.89976
5.89976
5.63777
5.63778
5.63778
5.6378
5.6378
5.63783
5.63788
5.63788
5.63788
5.63789
5.63784
5.63779
5.63782
5.63794
5.63822
5.63833
5.63803
5.63784
5.63776
5.63773
5.63791
5.63789
5.63779
5.63768
5.63757
5.63746
5.63735
5.63724
5.63711
5.63692
5.63695
5.63692
5.63687
5.63684
5.63683
5.63682
5.63682
5.63684
5.63687
5.63689
5.63693
5.63696
5.63701
5.63705
5.63709
5.63713
5.63714
5.63705
5.63678
5.63668
5.63668
5.6367
5.63673
5.63678
5.63679
5.6368
5.63677
5.63674
5.63674
5.63674
5.39701
5.39702
5.39703
5.39704
5.39705
5.39708
5.39712
5.39712
5.39712
5.39712
5.39711
5.39703
5.39701
5.39708
5.39721
5.39743
5.39716
5.39701
5.39692
5.39687
5.39697
5.39696
5.39685
5.3967
5.39656
5.39642
5.39627
5.39614
5.39599
5.39577
5.39577
5.39573
5.39568
5.39564
5.39562
5.39562
5.39563
5.39565
5.39568
5.39573
5.39576
5.39581
5.39587
5.39592
5.39597
5.39601
5.39596
5.39582
5.39567
5.3956
5.39562
5.39565
5.39568
5.39574
5.39576
5.39577
5.39575
5.39572
5.39573
5.39573
5.17566
5.17567
5.17568
5.17569
5.1757
5.17573
5.17576
5.17578
5.17577
5.17577
5.17575
5.1757
5.17565
5.17567
5.17576
5.17594
5.17574
5.17559
5.17546
5.17538
5.17532
5.17539
5.17528
5.17511
5.17493
5.17475
5.17457
5.1744
5.17422
5.17398
5.17397
5.1739
5.17383
5.17379
5.17377
5.17376
5.17377
5.17381
5.17384
5.1739
5.17396
5.17402
5.17409
5.17416
5.17422
5.17423
5.17409
5.17403
5.17396
5.17391
5.17393
5.17398
5.17402
5.17408
5.1741
5.17412
5.17411
5.17408
5.17409
5.17409
4.97149
4.9715
4.97151
4.97152
4.97153
4.97157
4.97159
4.97161
4.97161
4.9716
4.97159
4.97154
4.97149
4.97144
4.97144
4.97147
4.97145
4.97135
4.9712
4.97108
4.97094
4.97102
4.97089
4.97068
4.97046
4.97024
4.97002
4.96981
4.96959
4.96932
4.96928
4.9692
4.96912
4.96907
4.96904
4.96904
4.96906
4.9691
4.96916
4.96922
4.9693
4.96939
4.96946
4.96955
4.9696
4.96959
4.96948
4.96948
4.9694
4.96938
4.96941
4.96947
4.96952
4.96957
4.96961
4.96963
4.96963
4.96961
4.96962
4.96962
4.7826
4.78262
4.78263
4.78264
4.78265
4.78269
4.78271
4.78273
4.78273
4.78273
4.78271
4.78266
4.78262
4.78256
4.7825
4.78249
4.78251
4.7824
4.78224
4.78208
4.78191
4.78195
4.78177
4.78152
4.78125
4.78098
4.78072
4.78047
4.78021
4.7799
4.77983
4.77973
4.77964
4.77958
4.77955
4.77955
4.77959
4.77963
4.77971
4.7798
4.77988
4.77999
4.78009
4.78017
4.78018
4.78013
4.78014
4.78015
4.78011
4.78011
4.78016
4.78022
4.78028
4.78034
4.78038
4.78041
4.78041
4.7804
4.78042
4.78041
4.60737
4.60738
4.60739
4.6074
4.60742
4.60746
4.60749
4.60751
4.60752
4.60751
4.6075
4.60745
4.6074
4.60734
4.60728
4.60725
4.60725
4.60712
4.60693
4.60673
4.60653
4.60652
4.6063
4.60599
4.60567
4.60535
4.60503
4.60473
4.60443
4.60409
4.60399
4.60386
4.60376
4.60369
4.60366
4.60367
4.60371
4.60378
4.60387
4.60398
4.60409
4.60421
4.60433
4.60439
4.60432
4.60436
4.60441
4.60445
4.60445
4.60447
4.60454
4.60461
4.60468
4.60475
4.60479
4.60483
4.60483
4.60483
4.60484
4.60484
4.44437
4.44438
4.4444
4.44442
4.44443
4.44448
4.44451
4.44453
4.44455
4.44455
4.44453
4.44449
4.44444
4.44438
4.44431
4.44428
4.44425
4.4441
4.44388
4.44364
4.4434
4.44329
4.44306
4.4427
4.44232
4.44194
4.44156
4.44121
4.44085
4.44047
4.44033
4.44018
4.44006
4.43999
4.43996
4.43998
4.44004
4.44013
4.44024
4.44036
4.4405
4.44065
4.44078
4.44082
4.44078
4.44085
4.44092
4.44095
4.44098
4.44105
4.44114
4.44122
4.4413
4.44138
4.44143
4.44147
4.44148
4.44148
4.4415
4.4415
4.29239
4.29241
4.29242
4.29244
4.29247
4.29251
4.29255
4.29258
4.2926
4.29261
4.2926
4.29256
4.29252
4.29245
4.29237
4.29233
4.29229
4.29211
4.29186
4.29157
4.29127
4.29098
4.2908
4.29042
4.28998
4.28952
4.28908
4.28866
4.28825
4.28782
4.28765
4.28747
4.28733
4.28725
4.28723
4.28726
4.28734
4.28745
4.28759
4.28774
4.28791
4.28807
4.28814
4.28817
4.28824
4.28835
4.28846
4.28849
4.28855
4.28866
4.28876
4.28885
4.28893
4.28902
4.28908
4.28912
4.28914
4.28914
4.28917
4.28916
4.15036
4.15038
4.1504
4.15042
4.15045
4.1505
4.15055
4.15058
4.15061
4.15063
4.15063
4.15059
4.15055
4.15049
4.1504
4.15035
4.15029
4.15011
4.14982
4.14949
4.14913
4.14874
4.14853
4.1481
4.14758
4.14705
4.14653
4.14603
4.14555
4.14507
4.14486
4.14465
4.14449
4.14441
4.1444
4.14445
4.14455
4.14469
4.14486
4.14504
4.14523
4.14538
4.14539
4.14551
4.14565
4.14581
4.14592
4.14599
4.14608
4.14619
4.14631
4.14642
4.14651
4.1466
4.14667
4.14672
4.14674
4.14675
4.14677
4.14677
4.01734
4.01736
4.01738
4.01741
4.01745
4.0175
4.01757
4.0176
4.01765
4.01767
4.01768
4.01766
4.01762
4.01756
4.01748
4.01741
4.01734
4.01713
4.01683
4.01646
4.01604
4.0156
4.01526
4.01479
4.01419
4.01357
4.01296
4.01238
4.01182
4.01128
4.01102
4.01078
4.01062
4.01054
4.01054
4.01062
4.01074
4.01092
4.01111
4.01132
4.01154
4.01169
4.01174
4.0119
4.01209
4.01226
4.01237
4.01247
4.01261
4.01275
4.01288
4.01299
4.0131
4.0132
4.01327
4.01332
4.01335
4.01337
4.01339
4.01339
3.89252
3.89254
3.89256
3.8926
3.89264
3.89271
3.89278
3.89283
3.89288
3.89292
3.89294
3.89293
3.89291
3.89286
3.89278
3.89269
3.89259
3.89239
3.89207
3.89166
3.89117
3.89065
3.89011
3.88965
3.889
3.88828
3.88756
3.88688
3.88624
3.88563
3.88532
3.88505
3.88487
3.8848
3.88482
3.88492
3.88508
3.88529
3.88551
3.88572
3.88593
3.88609
3.88627
3.8865
3.88673
3.8869
3.88703
3.88717
3.88734
3.8875
3.88764
3.88776
3.88788
3.88798
3.88806
3.88812
3.88815
3.88817
3.8882
3.8882
3.77515
3.77518
3.77521
3.77525
3.7753
3.77538
3.77546
3.77553
3.77559
3.77565
3.77569
3.7757
3.77569
3.77564
3.77556
3.77544
3.77532
3.77514
3.77481
3.77438
3.77384
3.77323
3.77258
3.77205
3.77129
3.77045
3.76962
3.76882
3.76807
3.76738
3.76701
3.76671
3.76652
3.76646
3.76651
3.76665
3.76686
3.76709
3.76733
3.76759
3.76778
3.76801
3.76829
3.76857
3.76881
3.76898
3.76915
3.76934
3.76954
3.76971
3.76987
3.77
3.77013
3.77024
3.77032
3.77039
3.77042
3.77045
3.77047
3.77048
3.66461
3.66464
3.66467
3.66473
3.66478
3.66487
3.66496
3.66505
3.66514
3.66521
3.66527
3.6653
3.66531
3.66529
3.66521
3.66509
3.66496
3.66479
3.66445
3.66397
3.66339
3.66272
3.66197
3.6613
3.66044
3.65946
3.65848
3.65754
3.65668
3.6559
3.65544
3.65511
3.65492
3.65488
3.65497
3.65517
3.65539
3.65566
3.65597
3.65629
3.65653
3.65683
3.65716
3.65747
3.65773
3.65793
3.65813
3.65836
3.65857
3.65876
3.65892
3.65907
3.6592
3.65932
3.6594
3.65948
3.65952
3.65955
3.65957
3.65958
3.56031
3.56035
3.56039
3.56044
3.56052
3.56062
3.56073
3.56083
3.56094
3.56104
3.56112
3.56118
3.56122
3.56121
3.56116
3.56106
3.56093
3.56074
3.5604
3.55991
3.55928
3.55852
3.55769
3.55681
3.55595
3.5548
3.55365
3.55255
3.55154
3.55063
3.5501
3.54974
3.54955
3.54954
3.54968
3.54994
3.55013
3.55045
3.55077
3.55114
3.55152
3.55191
3.55229
3.55261
3.55287
3.55312
3.55338
3.55363
3.55386
3.55406
3.55424
3.55439
3.55453
3.55465
3.55475
3.55482
3.55487
3.5549
3.55493
3.55494
3.46175
3.46179
3.46183
3.4619
3.46199
3.4621
3.46223
3.46236
3.46249
3.46262
3.46273
3.46282
3.46289
3.46291
3.46289
3.4628
3.46266
3.46245
3.46215
3.46167
3.46101
3.46019
3.45927
3.45883
3.50511
3.50393
3.50265
3.50144
3.50032
3.49933
3.49875
3.49836
3.49817
3.49819
3.49837
3.49865
3.45073
3.45095
3.45137
3.45183
3.45231
3.45276
3.45316
3.45348
3.45378
3.45408
3.45438
3.45466
3.4549
3.45511
3.4553
3.45547
3.45561
3.45574
3.45584
3.45591
3.45597
3.456
3.45603
3.45604
3.36847
3.3685
3.36856
3.36864
3.36874
3.36887
3.36902
3.36917
3.36933
3.36948
3.36963
3.36976
3.36986
3.36993
3.36995
3.36989
3.36976
3.36955
3.36925
3.36882
3.36815
3.36731
3.36687
3.41089
3.40782
3.40661
3.40509
3.40362
3.40227
3.40107
3.40036
3.39991
3.39972
3.39979
3.40005
3.40035
3.40224
3.35685
3.35733
3.35788
3.35841
3.35891
3.35933
3.35969
3.36003
3.36037
3.36069
3.36098
3.36124
3.36146
3.36166
3.36183
3.36198
3.36211
3.36221
3.3623
3.36235
3.36239
3.36242
3.36243
3.28005
3.28008
3.28015
3.28024
3.28035
3.2805
3.28067
3.28085
3.28104
3.28123
3.28142
3.28159
3.28174
3.28186
3.28193
3.28193
3.28184
3.28166
3.28138
3.28098
3.28034
3.2795
3.27946
3.31916
3.31617
3.337
3.33531
3.3336
3.33202
3.33063
3.32981
3.3293
3.32912
3.32923
3.32957
3.30742
3.30922
3.26764
3.2682
3.26883
3.26942
3.26993
3.27037
3.27078
3.27118
3.27156
3.2719
3.2722
3.27247
3.2727
3.2729
3.27308
3.27323
3.27337
3.27348
3.27356
3.27362
3.27366
3.27369
3.2737
3.19612
3.19616
3.19623
3.19633
3.19646
3.19663
3.19683
3.19703
3.19726
3.19749
3.19772
3.19794
3.19815
3.19833
3.19846
3.19852
3.1985
3.19838
3.19814
3.19777
3.19721
3.19647
3.19685
3.23257
3.22971
3.24833
3.24649
3.24439
3.24244
3.24076
3.23967
3.23905
3.23887
3.23906
3.2394
3.21934
3.22097
3.18304
3.18363
3.18432
3.18494
3.18547
3.18596
3.18643
3.18687
3.18727
3.18762
3.18794
3.18821
3.18846
3.18867
3.18885
3.18901
3.18915
3.18926
3.18934
3.1894
3.18944
3.18947
3.18949
3.11635
3.11639
3.11647
3.11659
3.11673
3.11693
3.11714
3.11738
3.11764
3.11792
3.1182
3.11847
3.11874
3.119
3.1192
3.11935
3.11943
3.1194
3.11924
3.11893
3.11848
3.11793
3.11882
3.15101
3.14829
3.16484
3.16291
3.16046
3.15806
3.15591
3.15447
3.15365
3.15341
3.15359
3.15406
3.13565
3.13731
3.10272
3.10327
3.104
3.10465
3.10524
3.10579
3.10631
3.10677
3.10718
3.10755
3.10787
3.10815
3.1084
3.10862
3.1088
3.10896
3.1091
3.10922
3.1093
3.10937
3.10941
3.10944
3.10945
3.04043
3.04048
3.04057
3.0407
3.04086
3.04107
3.04132
3.04159
3.04189
3.04221
3.04255
3.04288
3.04323
3.04355
3.04386
3.04411
3.0443
3.04441
3.04439
3.04423
3.04394
3.04369
3.0452
3.07434
3.07211
3.08699
3.08501
3.08268
3.07994
3.07716
3.07498
3.07353
3.07287
3.07282
3.0733
3.05634
3.05802
3.02637
3.02683
3.02758
3.02831
3.02896
3.02957
3.0301
3.03057
3.031
3.03137
3.0317
3.03198
3.03224
3.03245
3.03264
3.03281
3.03295
3.03306
3.03315
3.03321
3.03325
3.03329
3.0333
2.9681
2.96816
2.96825
2.96839
2.96858
2.96881
2.96908
2.96939
2.96973
2.97009
2.97049
2.97089
2.97131
2.97173
2.97214
2.97251
2.97285
2.97312
2.97331
2.9734
2.97341
2.97362
2.97594
3.00264
3.00163
3.01552
3.01529
3.01462
3.01272
3.00893
3.00483
3.001
2.99828
2.99719
2.99704
2.98117
2.9828
2.95374
2.95412
2.95492
2.95569
2.95637
2.95699
2.95753
2.95801
2.95844
2.95881
2.95914
2.95943
2.95969
2.9599
2.96009
2.96026
2.9604
2.96051
2.9606
2.96066
2.96071
2.96074
2.96076
2.8991
2.89916
2.89926
2.89942
2.89962
2.89987
2.90017
2.90052
2.9009
2.90132
2.90177
2.90224
2.90274
2.90326
2.90378
2.9043
2.90481
2.90529
2.90574
2.90616
2.90664
2.90758
2.91107
2.93608
2.93779
2.95379
2.96074
2.97091
2.97685
2.969
2.96235
2.94588
2.93365
2.92775
2.92566
2.9102
2.91141
2.88462
2.88494
2.88574
2.88651
2.8872
2.88781
2.88835
2.88883
2.88926
2.88963
2.88996
2.89025
2.8905
2.89072
2.89091
2.89107
2.89122
2.89133
2.89142
2.89148
2.89152
2.89156
2.89157
2.8332
2.83327
2.83338
2.83354
2.83376
2.83404
2.83437
2.83474
2.83517
2.83564
2.83615
2.8367
2.83728
2.83791
2.83856
2.83923
2.83993
2.84065
2.84142
2.84228
2.84338
2.84538
2.85065
2.87513
2.88239
2.90898
2.94518
3.02853
3.10024
3.03038
3.0891
2.96384
2.89215
2.86739
2.85996
2.84336
2.84364
2.81891
2.81904
2.8198
2.82054
2.8212
2.8218
2.82234
2.82281
2.82323
2.8236
2.82392
2.82421
2.82446
2.82468
2.82486
2.82503
2.82516
2.82528
2.82537
2.82543
2.82547
2.82551
2.82552
2.77019
2.77027
2.77039
2.77056
2.7708
2.7711
2.77146
2.77187
2.77233
2.77285
2.77342
2.77404
2.77472
2.77545
2.77623
2.77707
2.77797
2.77897
2.78009
2.78146
2.78331
2.78663
2.79423
2.81986
2.8383
2.89233
3.04497
5.1212
16.8596
16.0508
5.26934
3.56068
2.919
2.82047
2.79999
2.78109
2.77948
2.75628
2.75617
2.75684
2.75753
2.75817
2.75874
2.75926
2.75972
2.76013
2.76049
2.76081
2.7611
2.76134
2.76156
2.76174
2.7619
2.76204
2.76215
2.76224
2.7623
2.76235
2.76238
2.7624
2.7099
2.70998
2.7101
2.71029
2.71054
2.71086
2.71125
2.71169
2.71219
2.71276
2.71339
2.71409
2.71485
2.71569
2.7166
2.71761
2.71872
2.72
2.72151
2.72342
2.72606
2.73079
2.74091
2.76912
2.80382
2.90362
3.50233
19.7246
83.9308
16.918
3.07996
2.78563
2.74528
2.72305
2.71847
2.69646
2.69607
2.69664
2.69727
2.69786
2.69841
2.69891
2.69935
2.69975
2.70011
2.70043
2.7007
2.70095
2.70116
2.70135
2.70151
2.70164
2.70176
2.70185
2.70191
2.70196
2.702
2.70202
2.65213
2.65221
2.65235
2.65255
2.65281
2.65316
2.65356
2.65404
2.65458
2.65519
2.65588
2.65664
2.65749
2.65843
2.65947
2.66064
2.66197
2.66352
2.6654
2.66785
2.67125
2.67725
2.68951
2.72071
2.76968
2.91291
3.82861
19.2766
52.8632
220.522
24.3262
3.12929
2.74901
2.69304
2.66856
2.66033
2.6393
2.63862
2.63907
2.63964
2.64019
2.6407
2.64117
2.6416
2.64199
2.64233
2.64264
2.64291
2.64315
2.64336
2.64354
2.6437
2.64383
2.64394
2.64403
2.6441
2.64414
2.64418
2.6442
2.59674
2.59682
2.59696
2.59718
2.59746
2.59781
2.59824
2.59874
2.59932
2.59998
2.60072
2.60154
2.60247
2.6035
2.60467
2.60598
2.6075
2.60931
2.61153
2.61445
2.6185
2.6255
2.63939
2.67273
2.73016
2.89634
3.82361
15.6611
34.4455
64.5785
42.9522
33.264
3.09347
2.7054
2.64142
2.61644
2.60461
2.58447
2.58358
2.58393
2.58444
2.58494
2.58542
2.58587
2.58628
2.58665
2.58698
2.58728
2.58754
2.58777
2.58798
2.58815
2.5883
2.58844
2.58854
2.58863
2.58869
2.58874
2.58877
2.5888
2.54357
2.54366
2.54381
2.54403
2.54432
2.54469
2.54514
2.54567
2.54627
2.54697
2.54775
2.54864
2.54963
2.55075
2.55202
2.55347
2.55515
2.55716
2.55966
2.56294
2.56749
2.57517
2.59007
2.62422
2.68498
2.85178
3.6749
12.3316
25.0426
40.4193
46.6298
26.853
3.04026
2.65771
2.58988
2.56588
2.55098
2.53176
2.53074
2.53102
2.53148
2.53194
2.5324
2.53283
2.53322
2.53357
2.53389
2.53418
2.53443
2.53466
2.53485
2.53503
2.53517
2.5353
2.53541
2.53549
2.53555
2.5356
2.53563
2.53565
2.49249
2.49259
2.49274
2.49297
2.49327
2.49365
2.49412
2.49467
2.4953
2.49603
2.49686
2.49778
2.49884
2.50003
2.50138
2.50292
2.50472
2.50686
2.50957
2.51313
2.51811
2.52615
2.54151
2.57522
2.63607
2.79108
3.49284
9.88083
19.3131
28.0511
41.0228
21.6028
2.97214
2.60756
2.53877
2.51651
2.49928
2.48099
2.47992
2.48018
2.48063
2.48106
2.4815
2.48191
2.48229
2.48263
2.48294
2.48321
2.48346
2.48368
2.48386
2.48403
2.48417
2.48429
2.4844
2.48448
2.48454
2.48458
2.48461
2.48463
2.44339
2.44348
2.44364
2.44387
2.44418
2.44458
2.44506
2.44562
2.44628
2.44703
2.44789
2.44886
2.44995
2.45119
2.45259
2.45418
2.45606
2.45835
2.46123
2.46498
2.47024
2.47837
2.4937
2.52612
2.58517
2.7273
3.31993
8.19733
15.6248
22.2808
35.3474
19.1841
2.89713
2.55693
2.48877
2.46815
2.44944
2.43212
2.43103
2.43128
2.43172
2.43215
2.43258
2.43298
2.43335
2.43368
2.43398
2.43425
2.43449
2.43469
2.43488
2.43504
2.43517
2.43529
2.43539
2.43547
2.43553
2.43557
2.4356
2.43562
2.39613
2.39623
2.39639
2.39662
2.39694
2.39735
2.39784
2.39842
2.39909
2.39986
2.40074
2.40174
2.40285
2.40408
2.40551
2.40719
2.40918
2.41157
2.41455
2.41838
2.42377
2.4318
2.44679
2.47745
2.53354
2.66542
3.16825
7.02249
13.1222
18.8906
30.1479
19.1009
2.83083
2.50801
2.44069
2.42164
2.4014
2.3849
2.38393
2.38416
2.38461
2.38504
2.38549
2.38592
2.3863
2.38663
2.38692
2.38717
2.3874
2.3876
2.38778
2.38793
2.38807
2.38818
2.38827
2.38835
2.3884
2.38844
2.38847
2.38849
2.35062
2.35072
2.35088
2.35113
2.35145
2.35186
2.35236
2.35294
2.35363
2.35441
2.3553
2.3563
2.35741
2.35868
2.36017
2.3619
2.36394
2.36637
2.3694
2.37323
2.37863
2.38644
2.4009
2.42969
2.48224
2.60593
3.0355
6.17599
11.3102
16.4656
25.786
19.459
2.78776
2.46233
2.39512
2.37744
2.35533
2.33959
2.33859
2.33879
2.3393
2.33976
2.3402
2.34062
2.34101
2.34134
2.34163
2.34188
2.3421
2.3423
2.34247
2.34261
2.34274
2.34285
2.34294
2.34301
2.34306
2.3431
2.34313
2.34315
2.30676
2.30687
2.30703
2.30727
2.3076
2.30801
2.30852
2.30911
2.3098
2.31057
2.31144
2.31243
2.31358
2.3149
2.31642
2.31817
2.32022
2.32266
2.3257
2.32947
2.33477
2.34231
2.35629
2.3831
2.43181
2.54828
2.92092
5.5465
9.93446
14.5507
22.3629
19.6341
2.8283
2.42041
2.35217
2.33639
2.31109
2.29597
2.29502
2.29521
2.29565
2.29615
2.29661
2.297
2.29736
2.2977
2.29801
2.29827
2.29849
2.29868
2.29884
2.29898
2.2991
2.2992
2.29929
2.29936
2.29941
2.29944
2.29947
2.29949
2.26447
2.26457
2.26473
2.26498
2.2653
2.26572
2.26622
2.26681
2.26749
2.26825
2.26912
2.27013
2.2713
2.27263
2.27415
2.2759
2.27795
2.28037
2.28337
2.28703
2.29217
2.29947
2.31293
2.33787
2.38278
2.49263
2.8205
5.03758
8.84441
12.9846
19.5776
19.2832
3.09117
2.38244
2.3115
2.29896
2.26866
2.25401
2.25304
2.25326
2.25367
2.25411
2.2546
2.25501
2.25536
2.25567
2.25597
2.25624
2.25646
2.25665
2.2568
2.25694
2.25705
2.25715
2.25723
2.2573
2.25734
2.25738
2.2574
2.25743
2.22365
2.22375
2.22391
2.22416
2.22448
2.22489
2.22539
2.22597
2.22663
2.22739
2.22828
2.2293
2.23046
2.23179
2.2333
2.23503
2.23705
2.23943
2.24236
2.24588
2.25089
2.25792
2.27084
2.2941
2.33539
2.43928
2.72935
4.61793
7.97413
11.6371
17.3393
18.3337
3.56298
2.34784
2.27262
2.26496
2.228
2.21367
2.21258
2.21283
2.21324
2.21365
2.21407
2.2145
2.21485
2.21516
2.21544
2.21571
2.21594
2.21612
2.21627
2.2164
2.21651
2.21661
2.21668
2.21674
2.21679
2.21682
2.21684
2.21687
2.18423
2.18433
2.18449
2.18473
2.18505
2.18546
2.18593
2.18649
2.18716
2.18793
2.18882
2.18983
2.19098
2.19229
2.19378
2.19548
2.19747
2.19978
2.20263
2.20604
2.21088
2.2176
2.23003
2.2518
2.28967
2.38903
2.64968
4.26483
7.24773
10.5049
15.5948
16.9297
4.08609
2.31627
2.23505
2.23344
2.18905
2.17495
2.17358
2.17384
2.17425
2.17466
2.17505
2.17542
2.17574
2.17604
2.17634
2.1766
2.17683
2.17702
2.17717
2.1773
2.1774
2.17749
2.17756
2.17762
2.17766
2.17769
2.17771
2.17773
2.14613
2.14624
2.1464
2.14663
2.14694
2.14733
2.14779
2.14836
2.14903
2.14979
2.15067
2.15166
2.15279
2.15408
2.15554
2.1572
2.15914
2.16136
2.16411
2.16743
2.17208
2.1785
2.19049
2.21097
2.24564
2.34211
2.57797
3.9723
6.65171
9.52919
14.1372
15.3855
4.50558
2.28737
2.19857
2.20289
2.15174
2.13779
2.13597
2.13623
2.13662
2.13702
2.13741
2.13775
2.13806
2.13833
2.13859
2.13886
2.13907
2.13926
2.13942
2.13954
2.13964
2.13973
2.13979
2.13985
2.13989
2.13991
2.13993
2.13996
2.1093
2.10941
2.10956
2.10979
2.11008
2.11046
2.11093
2.11149
2.11215
2.1129
2.11376
2.11473
2.11584
2.11709
2.11852
2.12013
2.12199
2.12413
2.1268
2.13001
2.13446
2.14059
2.1522
2.17161
2.20325
2.29768
2.51365
3.73955
6.14819
8.82894
13.0674
13.9775
4.74796
2.26001
2.16328
2.17178
2.11597
2.10214
2.09971
2.09993
2.1003
2.10069
2.10105
2.10138
2.10168
2.10195
2.10217
2.10239
2.10261
2.10279
2.10294
2.10307
2.10317
2.10325
2.10331
2.10336
2.1034
2.10342
2.10344
2.10347
2.07367
2.07377
2.07392
2.07413
2.07442
2.0748
2.07527
2.07581
2.07645
2.07719
2.07803
2.07898
2.08005
2.08127
2.08265
2.08421
2.08599
2.08806
2.09066
2.09374
2.09798
2.10383
2.11513
2.13368
2.16243
2.25652
2.45715
3.54861
5.71309
8.41882
12.3509
12.7705
4.83886
2.23327
2.12926
2.13923
2.08164
2.06791
2.06471
2.06488
2.06522
2.06558
2.06593
2.06625
2.06653
2.06678
2.06699
2.06718
2.06736
2.06754
2.06769
2.06781
2.06792
2.068
2.06805
2.0681
2.06813
2.06816
2.06817
2.0682
2.03918
2.03928
2.03942
2.03962
2.03991
2.04028
2.04074
2.04127
2.04189
2.04261
2.04343
2.04435
2.04539
2.04657
2.04791
2.0494
2.05112
2.05312
2.05562
2.05857
2.06261
2.06819
2.07923
2.09711
2.12306
2.21794
2.40524
3.36833
5.37993
8.0881
11.8376
11.7329
4.8165
2.20601
2.09653
2.10535
2.04863
2.03501
2.03093
2.03101
2.03131
2.03166
2.03198
2.03228
2.03254
2.03277
2.03298
2.03315
2.0333
2.03345
2.0336
2.03372
2.03381
2.0339
2.03396
2.034
2.03403
2.03405
2.03406
2.03409
2.00577
2.00587
2.006
2.00621
2.00649
2.00685
2.00729
2.00781
2.00842
2.00911
2.0099
2.01079
2.0118
2.01294
2.01422
2.01564
2.01731
2.01925
2.02163
2.02445
2.02831
2.03363
2.04447
2.06187
2.08512
2.17798
2.35522
3.21288
5.13927
7.88362
11.366
10.8361
4.72276
2.17613
2.06493
2.07104
2.0168
2.00335
1.9983
1.99826
1.99853
1.99884
1.99914
1.99942
1.99966
1.99988
2.00006
2.00023
2.00037
2.00049
2.0006
2.00072
2.00082
2.0009
2.00096
2.001
2.00103
2.00104
2.00106
2.00108
1.9734
1.97349
1.97363
1.97383
1.9741
1.97445
1.97488
1.97538
1.97597
1.97664
1.9774
1.97826
1.97923
1.98033
1.98155
1.98291
1.98453
1.98639
1.98866
1.99137
1.99503
2.00011
2.01083
2.02789
2.04856
2.1361
2.30574
3.1018
5.04277
7.79677
10.9115
10.0152
4.57838
2.1437
2.03389
2.03749
1.98604
1.9728
1.96676
1.96657
1.96681
1.96709
1.96736
1.96761
1.96783
1.96803
1.9682
1.96836
1.96848
1.9686
1.96869
1.96878
1.96887
1.96895
1.96901
1.96905
1.96908
1.96909
1.96911
1.96913
1.94202
1.94211
1.94224
1.94244
1.9427
1.94304
1.94345
1.94394
1.9445
1.94515
1.94588
1.94671
1.94765
1.94868
1.94985
1.95117
1.95273
1.9545
1.95668
1.95927
1.96275
1.9676
1.97826
1.99513
2.01342
2.09363
2.25736
3.0432
5.19792
7.77214
10.8355
9.22991
4.40331
2.10993
2.00329
2.00573
1.95621
1.94328
1.93623
1.93589
1.93609
1.93635
1.93659
1.93681
1.93701
1.93719
1.93735
1.93748
1.9376
1.9377
1.93779
1.93786
1.93793
1.93801
1.93807
1.93811
1.93813
1.93815
1.93816
1.93818
1.91159
1.91168
1.91181
1.91199
1.91225
1.91258
1.91297
1.91344
1.91398
1.9146
1.91531
1.9161
1.91699
1.91797
1.9191
1.92038
1.92187
1.92356
1.92563
1.92812
1.93143
1.93607
1.94672
1.96355
1.97971
2.0532
2.20965
3.02879
5.34649
7.62134
10.5496
8.56795
4.21597
2.07746
1.97348
1.97645
1.92725
1.91469
1.90668
1.90617
1.90633
1.90656
1.90677
1.90697
1.90715
1.90731
1.90745
1.90757
1.90767
1.90776
1.90784
1.9079
1.90796
1.90801
1.90807
1.90811
1.90814
1.90815
1.90816
1.90819
1.88206
1.88215
1.88227
1.88245
1.8827
1.88301
1.88339
1.88384
1.88436
1.88496
1.88564
1.8864
1.88724
1.88817
1.88926
1.89049
1.89191
1.89352
1.8955
1.89788
1.90103
1.90547
1.91621
1.93318
1.94738
2.01536
2.16456
2.98722
5.22256
7.498
9.91987
8.00244
4.03463
2.04708
1.9448
1.95
1.89907
1.88693
1.87802
1.87736
1.87749
1.87768
1.87786
1.87804
1.87819
1.87834
1.87846
1.87856
1.87866
1.87873
1.8788
1.87886
1.8789
1.87895
1.87898
1.87903
1.87906
1.87907
1.87908
1.87911
1.8534
1.85349
1.8536
1.85378
1.85401
1.85432
1.85468
1.85511
1.85561
1.85618
1.85683
1.85755
1.85834
1.85925
1.86029
1.86146
1.86281
1.86436
1.86623
1.86851
1.87151
1.87576
1.88667
1.90404
1.91647
1.97893
2.12764
2.9133
5.14628
7.29049
9.28379
7.46378
3.86628
2.01783
1.91715
1.92644
1.87161
1.85995
1.85022
1.84941
1.8495
1.84966
1.84982
1.84997
1.85011
1.85023
1.85034
1.85043
1.85051
1.85057
1.85063
1.85068
1.85072
1.85076
1.85078
1.85081
1.85084
1.85086
1.85087
1.8509
1.82557
1.82565
1.82577
1.82593
1.82616
1.82645
1.8268
1.82721
1.82769
1.82823
1.82885
1.82953
1.83029
1.83116
1.83216
1.83327
1.83456
1.83603
1.83781
1.83999
1.84283
1.8469
1.85807
1.87613
1.88711
1.94857
2.12087
3.15901
5.45817
7.35821
8.60696
6.5815
3.28501
1.95776
1.88382
1.90435
1.84479
1.83371
1.82323
1.82228
1.82234
1.82247
1.8226
1.82274
1.82285
1.82296
1.82305
1.82313
1.82319
1.82325
1.82329
1.82333
1.82337
1.8234
1.82342
1.82344
1.82346
1.82348
1.82349
1.82352
1.79853
1.79862
1.79872
1.79888
1.7991
1.79938
1.79971
1.8001
1.80056
1.80108
1.80166
1.8023
1.80304
1.80387
1.80482
1.80588
1.8071
1.8085
1.81019
1.81228
1.81497
1.81884
1.83021
1.83844
1.85881
1.91662
2.08925
3.25797
5.38696
7.12971
8.25825
6.26116
3.21287
1.92851
1.86004
1.88345
1.80616
1.8079
1.79697
1.79593
1.79596
1.79607
1.79617
1.79629
1.79638
1.79647
1.79655
1.79661
1.79667
1.79671
1.79675
1.79678
1.79681
1.79684
1.79685
1.79687
1.79688
1.79689
1.79691
1.79694
1.77226
1.77234
1.77244
1.77259
1.7728
1.77306
1.77338
1.77376
1.7742
1.77469
1.77524
1.77585
1.77655
1.77735
1.77825
1.77926
1.78042
1.78175
1.78335
1.78535
1.78791
1.79157
1.80296
1.81182
1.82643
1.90392
2.25671
3.94864
5.56466
7.24702
7.46287
5.24807
2.62241
1.86033
1.8509
1.82472
1.78132
1.78269
1.77144
1.77032
1.77032
1.77042
1.7705
1.77059
1.77067
1.77075
1.77081
1.77086
1.7709
1.77094
1.77097
1.77099
1.77101
1.77103
1.77105
1.77106
1.77106
1.77107
1.77109
1.77112
1.74672
1.7468
1.74689
1.74704
1.74724
1.74749
1.74779
1.74815
1.74857
1.74903
1.74955
1.75014
1.75081
1.75157
1.75242
1.75338
1.75448
1.75575
1.75726
1.75917
1.76161
1.76507
1.77645
1.78565
1.79787
1.87525
2.27036
3.93877
5.4256
7.01557
7.19843
5.04578
2.57584
1.83508
1.82972
1.80181
1.75701
1.75803
1.74658
1.74542
1.7454
1.74548
1.74554
1.74562
1.74568
1.74575
1.74579
1.74583
1.74587
1.74589
1.74592
1.74593
1.74595
1.74596
1.74597
1.74598
1.74598
1.74598
1.74599
1.74603
1.72188
1.72196
1.72205
1.72219
1.72238
1.72262
1.72291
1.72325
1.72364
1.72408
1.72457
1.72513
1.72578
1.72649
1.72731
1.72822
1.72926
1.73047
1.73189
1.73371
1.73604
1.73933
1.75069
1.76
1.77013
1.84905
2.28942
3.92819
5.2888
6.79592
6.96482
4.8766
2.53316
1.8103
1.80916
1.77965
1.73321
1.73394
1.72239
1.7212
1.72115
1.72122
1.72127
1.72134
1.72139
1.72144
1.72147
1.7215
1.72153
1.72155
1.72156
1.72157
1.72158
1.72158
1.72159
1.72159
1.72159
1.72159
1.7216
1.72163
1.69772
1.69779
1.69788
1.69801
1.69819
1.69842
1.6987
1.69902
1.69939
1.6998
1.70028
1.70082
1.70143
1.70211
1.70288
1.70375
1.70473
1.70588
1.70723
1.70896
1.71117
1.7143
1.72566
1.73492
1.74323
1.82605
2.32089
3.90679
5.15439
6.58617
6.75498
4.73438
2.49431
1.78595
1.78908
1.75814
1.70997
1.71044
1.69884
1.69762
1.69756
1.69763
1.69766
1.69772
1.69775
1.69779
1.69782
1.69784
1.69785
1.69786
1.69787
1.69787
1.69787
1.69788
1.69788
1.69788
1.69787
1.69787
1.69788
1.6979
1.6742
1.67428
1.67436
1.67449
1.67466
1.67488
1.67514
1.67545
1.6758
1.67619
1.67664
1.67715
1.67773
1.67838
1.67911
1.67994
1.68087
1.68197
1.68323
1.68488
1.68699
1.68998
1.70134
1.7105
1.71723
1.80621
2.35604
3.87452
5.02289
6.38519
6.55394
4.6172
2.45865
1.76213
1.76947
1.73719
1.6873
1.68752
1.67593
1.67468
1.67461
1.67467
1.67468
1.67473
1.67476
1.67478
1.6748
1.67481
1.67482
1.67482
1.67482
1.67482
1.67481
1.67481
1.67481
1.6748
1.6748
1.67479
1.67479
1.67482
1.65132
1.65139
1.65147
1.65159