/*--------------------------------*- C++ -*----------------------------------*\
  =========                 |
  \\      /  F ield         | OpenFOAM: The Open Source CFD Toolbox
   \\    /   O peration     | Website:  https://openfoam.org
    \\  /    A nd           | Version:  12
     \\/     M anipulation  |
\*---------------------------------------------------------------------------*/
FoamFile
{
    format      ascii;
    class       volScalarField;
    location    "60";
    object      p;
}
// * * * * * * * * * * * * * * * * * * * * * * * * * * * * * * * * * * * * * //

dimensions      [0 2 -2 0 0 0 0];

internalField   nonuniform List<scalar> 
16227
(
-0.0451673
-0.0450508
-0.0448181
-0.0444691
-0.0440039
-0.0434227
-0.0427258
-0.0419137
-0.0409874
-0.0399484
-0.0387985
-0.0375404
-0.0361774
-0.0347133
-0.0331529
-0.0315022
-0.0297681
-0.0279586
-0.0260829
-0.0241512
-0.0221746
-0.0201653
-0.0181359
-0.0160998
-0.0140705
-0.0120618
-0.0100869
-0.00815853
-0.00628884
-0.0044886
-0.00276746
-0.00113348
0.0004068
0.00184854
0.00318852
0.00442521
0.00555856
0.00658996
0.00752204
0.0083585
0.00910393
0.00976361
0.0103433
0.0108491
0.0112872
0.011664
0.0119856
0.0122579
0.0124868
0.0126774
0.0128349
0.0129636
0.0130679
0.0131512
0.0132168
0.0132673
0.0133051
0.0133318
0.0133489
0.0133573
-0.045253
-0.0451365
-0.0449038
-0.0445547
-0.0440894
-0.0435079
-0.0428105
-0.0419978
-0.0410706
-0.0400303
-0.0388787
-0.0376182
-0.0362521
-0.0347843
-0.0332196
-0.0315638
-0.0298238
-0.0280077
-0.0261245
-0.0241845
-0.0221991
-0.0201803
-0.0181412
-0.0160951
-0.0140558
-0.0120372
-0.0100529
-0.00811575
-0.00623798
-0.00443047
-0.00270316
-0.00106434
0.000479512
0.00192358
0.00326471
0.00450138
0.00563371
0.00666314
0.00759248
0.00842556
0.0091671
0.00982252
0.0103977
0.0108989
0.0113324
0.0117047
0.0120218
0.01229
0.0125149
0.0127019
0.012856
0.0129818
0.0130833
0.0131643
0.0132279
0.0132768
0.0133132
0.0133389
0.0133554
0.0133634
-0.0454428
-0.0453264
-0.0450936
-0.0447443
-0.0442787
-0.0436967
-0.0429984
-0.0421842
-0.0412549
-0.0402118
-0.0390563
-0.0377905
-0.0364178
-0.034942
-0.0333678
-0.0317007
-0.0299476
-0.0281166
-0.0262169
-0.0242587
-0.0222535
-0.0202139
-0.0181531
-0.0160848
-0.0140233
-0.0119829
-0.00997758
-0.00802083
-0.00612513
-0.00430169
-0.00256088
-0.00091134
0.000640466
0.00208975
0.00343342
0.00467011
0.00580016
0.00682526
0.00774854
0.00857413
0.00930707
0.00995308
0.0105184
0.0110094
0.0114327
0.0117949
0.0121023
0.0123613
0.0125775
0.0127564
0.0129031
0.0130223
0.013118
0.0131938
0.0132529
0.0132981
0.0133316
0.0133552
0.0133702
0.0133775
-0.045762
-0.0456456
-0.0454128
-0.0450633
-0.0445972
-0.0440143
-0.0433146
-0.0424981
-0.0415655
-0.0405176
-0.0393558
-0.0380813
-0.0366977
-0.0352087
-0.0336185
-0.0319326
-0.0301576
-0.0283018
-0.0263743
-0.0243853
-0.0223467
-0.0202717
-0.0181741
-0.0160681
-0.0139688
-0.0118913
-0.0098504
-0.00786028
-0.00593418
-0.00408384
-0.00232027
-0.000652567
0.000912706
0.00237076
0.00371865
0.0049553
0.00608134
0.00709902
0.00801192
0.00882473
0.00954305
0.0101731
0.0107216
0.0111954
0.0116015
0.0119468
0.0122379
0.0124812
0.0126828
0.0128482
0.0129826
0.0130906
0.0131764
0.0132436
0.0132953
0.0133344
0.013363
0.0133829
0.0133955
0.0134015
-0.046205
-0.0460887
-0.0458559
-0.0455063
-0.0450398
-0.0444559
-0.0437544
-0.0429351
-0.0419981
-0.040944
-0.0397736
-0.0384876
-0.0370893
-0.0355821
-0.03397
-0.032258
-0.0304529
-0.0285628
-0.0265967
-0.0245641
-0.0224785
-0.0203537
-0.0182041
-0.0160449
-0.0138922
-0.0117622
-0.00967085
-0.00763355
-0.00566448
-0.00377626
-0.00198071
-0.000287622
0.00129636
0.00276641
0.00411981
0.00535586
0.00647578
0.00748247
0.00838027
0.00917464
0.00987199
0.0104793
0.0110039
0.0114533
0.0118351
0.0121565
0.0124247
0.0126462
0.0128273
0.0129739
0.013091
0.0131837
0.0132557
0.0133108
0.0133523
0.0133829
0.0134047
0.0134196
0.0134288
0.0134332
-0.046764
-0.0466478
-0.0464152
-0.0460658
-0.0455991
-0.0450144
-0.0443112
-0.0434889
-0.042547
-0.0414856
-0.0403051
-0.0390057
-0.0375893
-0.0360595
-0.03442
-0.0326755
-0.0308322
-0.0288987
-0.026883
-0.0247948
-0.0226489
-0.0204598
-0.0182431
-0.0160151
-0.0137931
-0.0115948
-0.00943801
-0.00733943
-0.00531475
-0.00337758
-0.001541
0.000184547
0.00179205
0.00327681
0.0046364
0.00587065
0.0069816
0.00797307
0.00885039
0.00962013
0.0102897
0.010867
0.0113603
0.011778
0.0121282
0.0124189
0.0126574
0.012851
0.013006
0.0131285
0.0132239
0.0132969
0.0133515
0.0133914
0.01342
0.0134399
0.0134533
0.0134618
0.0134668
0.0134691
-0.0474382
-0.0473223
-0.0470903
-0.0467414
-0.046275
-0.0456901
-0.0449857
-0.0441606
-0.0432138
-0.0421446
-0.0409531
-0.0396388
-0.0382016
-0.0366453
-0.0349734
-0.03319
-0.0313013
-0.0293147
-0.0272381
-0.0250819
-0.0228616
-0.0205931
-0.018293
-0.015979
-0.0136703
-0.0113868
-0.00914796
-0.00697275
-0.00487855
-0.00288057
-0.000993229
0.000772037
0.00240791
0.00390978
0.00527564
0.00650617
0.00760441
0.00857539
0.00942586
0.0101637
0.0107976
0.0113369
0.0117908
0.0121687
0.0124796
0.0127321
0.0129343
0.0130935
0.0132166
0.0133098
0.0133787
0.0134278
0.0134613
0.013483
0.0134961
0.0135032
0.0135063
0.0135073
0.0135072
0.013507
-0.0482289
-0.0481137
-0.0478827
-0.0475351
-0.04707
-0.0464858
-0.045781
-0.0449541
-0.0440031
-0.0429265
-0.0417235
-0.0403932
-0.0389339
-0.0373479
-0.0356388
-0.0338104
-0.0318688
-0.0298193
-0.0276703
-0.0254326
-0.0231229
-0.0207583
-0.0183567
-0.0159377
-0.013523
-0.0111348
-0.00879526
-0.00652599
-0.00434674
-0.00227463
-0.000325829
0.00148692
0.00315607
0.00467712
0.0060487
0.00727257
0.00835319
0.00929721
0.0101131
0.0108105
0.0113997
0.0118917
0.012297
0.0126263
0.0128895
0.0130959
0.0132542
0.0133724
0.0134575
0.0135161
0.0135536
0.0135745
0.0135832
0.0135836
0.0135786
0.0135707
0.013562
0.0135541
0.0135482
0.0135451
-0.0491366
-0.0490223
-0.0487932
-0.0484479
-0.0479853
-0.0474034
-0.0466999
-0.0458726
-0.0449189
-0.043836
-0.0426219
-0.0412753
-0.0397936
-0.0381753
-0.0364249
-0.034546
-0.0325438
-0.0304219
-0.028189
-0.0258558
-0.0234402
-0.0209612
-0.018438
-0.0158928
-0.01335
-0.010835
-0.00837356
-0.00599044
-0.00370846
-0.00154725
0.000474732
0.00234337
0.00405062
0.00559238
0.00696816
0.00818117
0.00923771
0.0101466
0.0109185
0.0115653
0.0120993
0.0125334
0.0128799
0.0131506
0.0133568
0.0135085
0.0136152
0.0136852
0.0137261
0.0137446
0.0137457
0.0137342
0.0137146
0.0136905
0.0136648
0.01364
0.0136178
0.0135999
0.0135874
0.0135809
-0.0501602
-0.0500474
-0.049821
-0.0494795
-0.0490213
-0.0484437
-0.0477439
-0.0469187
-0.0459645
-0.0448775
-0.0436542
-0.0422919
-0.0407873
-0.039136
-0.0373417
-0.0354082
-0.033338
-0.0311341
-0.0288051
-0.0263615
-0.0238225
-0.0212087
-0.0185416
-0.015846
-0.0131499
-0.010483
-0.00787511
-0.00535533
-0.00295043
-0.000683253
0.001425
0.00335837
0.00510845
0.0066716
0.00804863
0.00924477
0.0102688
0.0111322
0.0118486
0.0124325
0.0128991
0.0132631
0.013539
0.0137402
0.0138792
0.013967
0.0140138
0.0140284
0.0140187
0.0139912
0.0139509
0.0139028
0.0138514
0.0138
0.0137512
0.0137074
0.0136703
0.0136413
0.0136214
0.0136113
-0.0512981
-0.0511873
-0.050965
-0.0506292
-0.0501777
-0.0496073
-0.0489144
-0.0480947
-0.0471435
-0.0460558
-0.0448264
-0.0434508
-0.0419247
-0.0402415
-0.038402
-0.03641
-0.0342652
-0.0319697
-0.0295323
-0.0269629
-0.0242812
-0.0215102
-0.0186737
-0.0158001
-0.0129218
-0.0100734
-0.00729044
-0.00460739
-0.00205604
0.000336514
0.00254564
0.00455315
0.00635035
0.00793436
0.00930781
0.0104786
0.0114589
0.0122638
0.0129104
0.0134169
0.0138012
0.0140811
0.0142732
0.0143926
0.0144533
0.0144673
0.0144455
0.014397
0.0143301
0.0142508
0.0141643
0.0140757
0.0139891
0.0139075
0.0138334
0.0137688
0.0137153
0.0136742
0.0136463
0.0136322
-0.0525483
-0.0524405
-0.0522238
-0.0518959
-0.0514542
-0.0508948
-0.0502129
-0.0494034
-0.0484601
-0.0473764
-0.0461457
-0.0447609
-0.0432165
-0.0415045
-0.0396192
-0.0375656
-0.035341
-0.0329459
-0.0303881
-0.0276773
-0.0248319
-0.021878
-0.018843
-0.0157594
-0.0126648
-0.00960021
-0.00660808
-0.00373015
-0.00100471
0.00153581
0.00386231
0.00595402
0.00780195
0.00940451
0.0107669
0.0119009
0.0128229
0.0135526
0.0141119
0.014523
0.0148078
0.0149872
0.0150803
0.0151044
0.0150747
0.0150043
0.0149048
0.0147854
0.0146544
0.0145176
0.0143803
0.0142475
0.0141225
0.0140081
0.0139065
0.0138196
0.0137485
0.0136944
0.0136579
0.0136396
-0.0539082
-0.0538043
-0.0535951
-0.0532781
-0.05285
-0.0523061
-0.0516407
-0.0508472
-0.0499182
-0.0488453
-0.0476197
-0.0462322
-0.0446745
-0.0429374
-0.0410102
-0.0388944
-0.036586
-0.0340838
-0.0313939
-0.0285255
-0.0254936
-0.0223281
-0.0190614
-0.0157304
-0.012379
-0.00905658
-0.00581446
-0.00270369
0.000229011
0.00294409
0.00540678
0.00759332
0.00949456
0.0111108
0.0124513
0.0135325
0.0143771
0.0150107
0.0154608
0.0157551
0.01592
0.0159799
0.0159571
0.0158707
0.0157375
0.0155715
0.0153848
0.0151866
0.0149847
0.0147852
0.0145928
0.014412
0.0142458
0.0140963
0.0139656
0.0138549
0.0137653
0.0136975
0.013652
0.0136291
-0.0553741
-0.0552752
-0.055076
-0.0547734
-0.0543634
-0.0538406
-0.0531983
-0.0524284
-0.0515219
-0.0504683
-0.0492568
-0.0478753
-0.0463123
-0.0445564
-0.042594
-0.0404178
-0.0380241
-0.0354089
-0.0325756
-0.0295315
-0.026289
-0.0228811
-0.0193446
-0.0157223
-0.012066
-0.00843522
-0.00489336
-0.00150329
0.00167676
0.00459808
0.0072187
0.00951113
0.0114664
0.013088
0.0143906
0.0153979
0.01614
0.0166506
0.0169647
0.0171162
0.0171371
0.0170559
0.016898
0.0166847
0.0164341
0.0161609
0.0158773
0.0155922
0.0153131
0.0150458
0.0147944
0.0145626
0.0143527
0.0141664
0.0140051
0.0138697
0.0137607
0.0136787
0.0136238
0.0135964
-0.0569413
-0.0568488
-0.0566622
-0.056378
-0.0559916
-0.0554967
-0.0548855
-0.0541483
-0.0532744
-0.0522513
-0.0510653
-0.0497016
-0.0481446
-0.0463798
-0.0443898
-0.04216
-0.0396833
-0.0369523
-0.0339657
-0.0307282
-0.0272496
-0.0235645
-0.0197146
-0.0157488
-0.0117291
-0.0077284
-0.00382517
-9.85793e-05
0.00337826
0.00654409
0.00934778
0.0117573
0.0137646
0.0153781
0.0166202
0.0175246
0.0181317
0.0184855
0.0186303
0.0186079
0.0184564
0.0182094
0.0178951
0.017537
0.0171544
0.0167621
0.0163719
0.0159922
0.0156304
0.015291
0.0149772
0.0146918
0.0144363
0.0142119
0.0140191
0.0138583
0.0137296
0.0136331
0.0135687
0.0135365
-0.0586035
-0.058519
-0.0583482
-0.0580871
-0.0577306
-0.0572715
-0.0567008
-0.0560073
-0.0551785
-0.0541994
-0.0530536
-0.0517228
-0.0501874
-0.048428
-0.046423
-0.0441504
-0.0415975
-0.0387516
-0.035605
-0.0321579
-0.0284167
-0.0244154
-0.020201
-0.0158296
-0.0113754
-0.00692813
-0.00258667
0.00154849
0.00538357
0.00884087
0.0118568
0.0143943
0.0164473
0.0180318
0.0191817
0.019944
0.0203736
0.0205277
0.0204622
0.0202286
0.0198721
0.0194311
0.0189371
0.0184152
0.0178854
0.0173622
0.0168562
0.0163754
0.0159259
0.0155108
0.015132
0.0147913
0.0144893
0.0142261
0.0140014
0.013815
0.0136666
0.0135556
0.0134817
0.0134448
-0.0603529
-0.0602781
-0.0601266
-0.0598941
-0.0595747
-0.0591604
-0.0586412
-0.0580045
-0.0572354
-0.0563169
-0.0552294
-0.0539508
-0.0524571
-0.0507231
-0.0487217
-0.046423
-0.0438062
-0.0408518
-0.0375428
-0.0338735
-0.0298446
-0.0254846
-0.0208453
-0.0159934
-0.011017
-0.00602723
-0.00114969
0.00348551
0.00775687
0.0115636
0.0148262
0.0175012
0.0195868
0.0211107
0.0221234
0.0226911
0.0228877
0.0227879
0.022462
0.0219727
0.0213733
0.0207072
0.0200086
0.0193034
0.0186115
0.0179458
0.0173159
0.0167286
0.0161876
0.0156942
0.015249
0.0148525
0.0145037
0.0142018
0.0139457
0.0137342
0.0135663
0.0134411
0.013358
0.0133166
-0.0621799
-0.0621168
-0.0619886
-0.0617906
-0.0615164
-0.0611572
-0.060702
-0.0601368
-0.0594449
-0.0586066
-0.0575994
-0.056397
-0.0549705
-0.0532882
-0.0513164
-0.0490155
-0.0463554
-0.0433065
-0.03984
-0.0359405
-0.0316015
-0.0268371
-0.0217045
-0.0162819
-0.0106749
-0.0050207
0.000518612
0.00577247
0.0105803
0.0148096
0.018359
0.0211782
0.0232729
0.0246891
0.0255015
0.0258037
0.0256952
0.025273
0.0246254
0.0238283
0.0229432
0.0220179
0.0210885
0.0201805
0.019312
0.0184941
0.0177342
0.0170365
0.0164018
0.0158293
0.0153179
0.0148662
0.0144716
0.0141321
0.0138455
0.0136098
0.0134234
0.0132848
0.0131929
0.0131471
-0.0640729
-0.0640237
-0.063923
-0.063766
-0.0635458
-0.0632532
-0.062876
-0.0623993
-0.0618043
-0.0610693
-0.0601683
-0.0590713
-0.0577436
-0.056147
-0.0542395
-0.0519704
-0.0492977
-0.0461795
-0.0425702
-0.0384397
-0.033769
-0.0285559
-0.0228552
-0.0167557
-0.0103819
-0.00390667
0.00245854
0.0084868
0.0139622
0.0187071
0.0225904
0.0255541
0.0276179
0.0288558
0.0293793
0.0293202
0.0288132
0.027983
0.0269399
0.0257744
0.024556
0.0233353
0.0221489
0.0210197
0.0199626
0.0189854
0.0180918
0.0172822
0.0165538
0.0159034
0.0153276
0.0148228
0.0143847
0.0140097
0.0136946
0.0134365
0.0132329
0.0130818
0.0129819
0.0129321
-0.0660183
-0.0659852
-0.0659166
-0.0658076
-0.065651
-0.0654371
-0.0651533
-0.0647836
-0.0643081
-0.0637025
-0.0629381
-0.061981
-0.060791
-0.0593223
-0.0575241
-0.0553334
-0.0526931
-0.0495445
-0.0458222
-0.0414738
-0.0364604
-0.03076
-0.0244098
-0.0175044
-0.0101947
-0.00269454
0.0047147
0.011726
0.0180439
0.0234256
0.0276986
0.0307973
0.032765
0.0337208
0.0338304
0.0332805
0.0322523
0.0309068
0.0293798
0.0277774
0.0261748
0.0246229
0.0231549
0.021789
0.0205346
0.0193946
0.018367
0.0174468
0.0166276
0.0159031
0.0152669
0.0147128
0.0142347
0.0138276
0.0134869
0.0132088
0.0129899
0.0128279
0.0127208
0.0126675
-0.0680001
-0.0679854
-0.0679536
-0.0678997
-0.0678167
-0.0676946
-0.0675207
-0.0672783
-0.0669466
-0.0664999
-0.0659068
-0.0651299
-0.0641238
-0.0628349
-0.0612033
-0.0591532
-0.0566073
-0.0534869
-0.0497025
-0.0451707
-0.0398227
-0.0336079
-0.0265208
-0.0186598
-0.0101941
-0.0014003
0.00734475
0.0156216
0.0230176
0.0291931
0.0339174
0.037119
0.0388837
0.039402
0.0389215
0.0377072
0.0360074
0.0340142
0.0319004
0.0297853
0.0277464
0.0258294
0.0240602
0.0224483
0.0209942
0.0196931
0.0185355
0.0175103
0.0166068
0.0158147
0.0151244
0.0145268
0.0140139
0.0135792
0.0132167
0.0129217
0.0126901
0.012519
0.0124061
0.0123499
-0.0699999
-0.0700059
-0.0700155
-0.0700241
-0.0700248
-0.070008
-0.069961
-0.0698671
-0.0697056
-0.0694498
-0.0690666
-0.0685156
-0.0677473
-0.0667008
-0.0653065
-0.0634762
-0.0611087
-0.0581011
-0.0543352
-0.0496859
-0.0440384
-0.0372958
-0.0293982
-0.020415
-0.0105468
-8.84112e-05
0.0103985
0.0203405
0.0291503
0.0363426
0.0415992
0.0448457
0.0462402
0.0460893
0.0447664
0.0426419
0.0400524
0.0372474
0.0344303
0.0317242
0.0292008
0.0268922
0.0248104
0.0229515
0.0213029
0.0198491
0.0185711
0.0174516
0.0164743
0.0156245
0.0148888
0.0142555
0.0137147
0.0132582
0.0128789
0.0125709
0.0123298
0.0121518
0.0120345
0.0119763
-0.0719967
-0.0720257
-0.0720814
-0.0721595
-0.0722539
-0.0723555
-0.0724526
-0.0725292
-0.0725651
-0.072534
-0.0724025
-0.0721283
-0.0716589
-0.0709278
-0.069856
-0.0683431
-0.0662647
-0.063489
-0.0598618
-0.0552054
-0.0493409
-0.0421001
-0.0333326
-0.0230549
-0.0114082
0.00118868
0.0139354
0.0260792
0.0367482
0.0452347
0.051094
0.0542587
0.0550146
0.0538579
0.0513523
0.0480182
0.0443163
0.0405001
0.0368607
0.0334917
0.0304475
0.027734
0.0253415
0.0232462
0.0214184
0.0198285
0.0184473
0.01725
0.0162138
0.0153195
0.0145499
0.013891
0.0133308
0.0128595
0.0124691
0.0121529
0.0119058
0.0117237
0.0116039
0.0115444
-0.0739675
-0.0740215
-0.0741273
-0.0742816
-0.074479
-0.0747117
-0.0749693
-0.0752378
-0.0754985
-0.0757267
-0.0758903
-0.0759474
-0.0758445
-0.0755117
-0.0748627
-0.0737869
-0.0721399
-0.069756
-0.0664372
-0.0619463
-0.0560214
-0.0483814
-0.0387768
-0.0270111
-0.0167199
-0.00202401
0.0130961
0.0279022
0.041185
0.0518884
0.0592804
0.0631239
0.0637607
0.0618873
0.0583267
0.0538303
0.0485971
0.0436191
0.0390355
0.0349461
0.0313678
0.0282592
0.0255783
0.0232741
0.0212953
0.0195966
0.018138
0.0168855
0.0158103
0.0148882
0.0140991
0.0134265
0.0128569
0.0123792
0.0119844
0.0116653
0.0114164
0.0112332
0.0111126
0.0110529
-0.075887
-0.0759677
-0.0761273
-0.0763633
-0.0766717
-0.0770467
-0.07748
-0.0779602
-0.0784717
-0.078993
-0.0794953
-0.0799399
-0.0802751
-0.0804315
-0.0803195
-0.0798216
-0.0787799
-0.0769956
-0.0742211
-0.0701516
-0.0644365
-0.0566479
-0.0462624
-0.0354997
-0.0192499
-0.00154517
0.0177018
0.0368603
0.05402
0.0674326
0.0759253
0.0792414
0.0780965
0.0737436
0.0675311
0.060581
0.0538502
0.0463802
0.0407236
0.0359138
0.0318245
0.0283596
0.0254391
0.0229742
0.0208888
0.0191215
0.0176198
0.0163413
0.0152514
0.0143219
0.0135301
0.0128577
0.0122899
0.0118149
0.0114231
0.011107
0.0108606
0.0106795
0.0105604
0.0105013
-0.0777283
-0.0778369
-0.0780529
-0.078375
-0.0788009
-0.0793271
-0.0799486
-0.0806575
-0.0814427
-0.082288
-0.0831703
-0.084057
-0.0849027
-0.0856436
-0.0861927
-0.0864319
-0.0861978
-0.0852704
-0.0833537
-0.0800698
-0.0749583
-0.0674819
-0.0565643
-0.0431211
-0.0250034
-0.00612248
0.0180731
0.0425579
0.0649603
0.0825283
0.0932586
0.0965941
0.0936701
0.0865252
0.0772858
0.0673266
0.0579905
0.0485357
0.041644
0.0361892
0.0316515
0.0279171
0.0248411
0.0222882
0.0201594
0.0183761
0.0168745
0.0156052
0.0145291
0.0136154
0.0128396
0.0121826
0.0116289
0.0111664
0.0107854
0.0104783
0.0102391
0.0100634
0.00994784
0.00989056
-0.0794632
-0.0796005
-0.0798744
-0.0802851
-0.0808324
-0.0815159
-0.0823343
-0.0832847
-0.0843617
-0.0855563
-0.0868542
-0.0882323
-0.0896566
-0.0910753
-0.0924127
-0.0935606
-0.0943611
-0.0945912
-0.0939288
-0.0919277
-0.0879792
-0.0814406
-0.0708621
-0.0551092
-0.0339574
-0.0100144
0.0219215
0.0554587
0.08671
0.110688
0.123656
0.124933
0.117015
0.103826
0.0888713
0.0737529
0.0614711
0.0492141
0.0413929
0.0354959
0.03066
0.026814
0.0237074
0.0211673
0.0190771
0.0173423
0.0158915
0.0146715
0.0136409
0.0127681
0.0120283
0.0114024
0.0108754
0.0104355
0.0100732
0.00978117
0.00955378
0.00938665
0.0092769
0.00922239
-0.0810629
-0.0812288
-0.0815607
-0.0820604
-0.0827303
-0.0835732
-0.0845926
-0.0857911
-0.087171
-0.0887322
-0.0904718
-0.0923806
-0.0944408
-0.0966204
-0.098866
-0.101093
-0.103168
-0.10489
-0.105947
-0.10587
-0.103912
-0.0992944
-0.090258
-0.072761
-0.0489986
-0.0190673
0.0226495
0.0692402
0.11437
0.148665
0.164764
0.161647
0.144917
0.122298
0.0995766
0.0782135
0.0628119
0.0479333
0.0395723
0.0335441
0.0286831
0.0249555
0.0219823
0.0195834
0.0176286
0.0160153
0.0146712
0.0135432
0.012591
0.0117846
0.0111007
0.0105218
0.0100339
0.00962621
0.00929018
0.00901913
0.00880791
0.00865266
0.00855054
0.00849988
-0.0824982
-0.0826919
-0.0830804
-0.083667
-0.084457
-0.085457
-0.0866753
-0.0881215
-0.0898062
-0.0917402
-0.0939344
-0.0963969
-0.0991321
-0.102135
-0.105387
-0.108844
-0.112423
-0.115976
-0.119254
-0.121854
-0.122991
-0.1218
-0.116377
-0.0982383
-0.0739632
-0.0375367
0.0162207
0.0829579
0.151887
0.204519
0.224842
0.211392
0.177941
0.14017
0.107094
0.078431
0.0606514
0.0439929
0.0357663
0.0301137
0.0256207
0.0222957
0.0196514
0.0175386
0.0158237
0.014408
0.013227
0.012233
0.011391
0.0106753
0.0100661
0.00954867
0.00911122
0.00874466
0.00844182
0.00819706
0.00800605
0.00786539
0.00777291
0.00772692
-0.0837405
-0.0839604
-0.0844022
-0.085071
-0.0859748
-0.0871242
-0.0885331
-0.0902178
-0.0921984
-0.0944977
-0.0971419
-0.10016
-0.103581
-0.107437
-0.111754
-0.116546
-0.121809
-0.127495
-0.133476
-0.139529
-0.145031
-0.149235
-0.150586
-0.134367
-0.114177
-0.0734267
-0.00675716
0.0902073
0.202722
0.291593
0.318175
0.279392
0.21313
0.152023
0.106706
0.0715598
0.0533654
0.0367425
0.029695
0.0251231
0.021474
0.0188642
0.016755
0.0150753
0.0137007
0.0125538
0.011587
0.0107644
0.0100604
0.00945625
0.00893776
0.00849411
0.00811667
0.00779878
0.00753497
0.00732106
0.00715359
0.00703013
0.00694868
0.00690821
-0.0847626
-0.0850062
-0.0854962
-0.0862396
-0.087247
-0.088533
-0.0901166
-0.0920215
-0.0942767
-0.0969176
-0.0999867
-0.103534
-0.107621
-0.112315
-0.117696
-0.123854
-0.130887
-0.138892
-0.147932
-0.158084
-0.169146
-0.180817
-0.192836
-0.183151
-0.175765
-0.139348
-0.0676238
0.0696934
0.266826
0.436118
0.476587
0.368848
0.23727
0.145467
0.091164
0.0546452
0.0397723
0.0260594
0.0214484
0.0187272
0.0163946
0.01479
0.0134025
0.0122818
0.0113291
0.0105073
0.00979419
0.00917118
0.00862571
0.00814859
0.00773257
0.00737183
0.0070616
0.006798
0.00657774
0.00639813
0.00625696
0.00615241
0.00608341
0.00604899
-0.0855398
-0.0858038
-0.0863353
-0.087143
-0.0882399
-0.0896441
-0.0913795
-0.0934762
-0.0959722
-0.0989143
-0.102361
-0.106383
-0.111071
-0.116533
-0.122905
-0.130358
-0.139103
-0.149414
-0.161603
-0.176138
-0.193484
-0.214109
-0.24018
-0.243496
-0.262368
-0.250969
-0.208724
-0.0489737
0.320873
0.682479
0.76046
0.457414
0.206366
0.09794
0.052575
0.0263092
0.0199593
0.0127075
0.0116423
0.0113833
0.0107161
0.0103183
0.00977581
0.00929163
0.00880731
0.00834206
0.00790383
0.00749517
0.00711908
0.00677728
0.00647016
0.00619755
0.00595877
0.00575294
0.00557908
0.00543609
0.00532292
0.00523877
0.0051829
0.00515502
-0.0860505
-0.0863309
-0.0868957
-0.0877549
-0.0889235
-0.0904226
-0.0922802
-0.0945318
-0.0972227
-0.10041
-0.104164
-0.108576
-0.113761
-0.119862
-0.127067
-0.13562
-0.145843
-0.15818
-0.173203
-0.191776
-0.215156
-0.244657
-0.285495
-0.307403
-0.364731
-0.411751
-0.48789
-0.511025
-0.127004
1.46354
1.34211
0.278364
0.0153973
-0.0099951
-0.00969048
-0.00996227
-0.00334499
-0.00147778
0.00144253
0.00385459
0.00494832
0.00579608
0.00611463
0.00627145
0.00625388
0.00614375
0.00597856
0.00578284
0.00557563
0.00536926
0.0051716
0.00498801
0.00482173
0.00467487
0.00454851
0.00444316
0.00435894
0.00429572
0.00425364
0.00423248
-0.0862778
-0.0865698
-0.0871583
-0.0880541
-0.0892738
-0.0908405
-0.0927849
-0.0951467
-0.0979764
-0.101338
-0.105312
-0.110002
-0.115541
-0.122099
-0.129901
-0.139244
-0.150528
-0.164322
-0.181401
-0.202889
-0.230716
-0.266614
-0.318431
-0.358974
-0.451243
-0.569655
-0.839473
-1.71064
-5.23537
-1.52375
-0.317696
-0.141793
-0.0755258
-0.0440864
-0.0249694
-0.0139187
-0.00761419
-0.00290987
-0.000307661
0.00161474
0.00267954
0.0033982
0.00379193
0.00399972
0.00408112
0.00408044
0.0040301
0.00395108
0.00385765
0.00375974
0.00366403
0.00357506
0.00349571
0.00342783
0.00337251
0.0033305
0.00330216
0.00328789
-0.0862097
-0.0865081
-0.0871098
-0.088026
-0.0892738
-0.0908776
-0.0928696
-0.0952915
-0.0981963
-0.101652
-0.105743
-0.11058
-0.116304
-0.123098
-0.1312
-0.140932
-0.152724
-0.167182
-0.185173
-0.207825
-0.237406
-0.275186
-0.330247
-0.381399
-0.483496
-0.629476
-0.915059
-1.56992
-2.42607
-1.41918
-0.311354
-0.34924
-0.201052
-0.1147
-0.0649034
-0.0393619
-0.0221768
-0.0140773
-0.00802842
-0.00450243
-0.00187221
-0.000295998
0.00082983
0.00153118
0.00198744
0.00226764
0.00242971
0.00251416
0.00254736
0.00254784
0.00252865
0.00249887
0.00246471
0.00243039
0.00239871
0.00237158
0.00235019
0.00233554
0.00232801
-0.0858399
-0.0861393
-0.0867432
-0.0876626
-0.0889146
-0.0905236
-0.0925218
-0.0949508
-0.0978636
-0.101327
-0.105427
-0.110271
-0.115997
-0.122785
-0.130866
-0.140549
-0.152239
-0.166487
-0.184116
-0.20599
-0.234344
-0.269229
-0.319383
-0.370367
-0.45611
-0.577253
-0.748927
-1.00208
-1.19413
-1.324
-1.37037
-0.662717
-0.321925
-0.192228
-0.118177
-0.0681512
-0.0438638
-0.0250986
-0.0171821
-0.0110033
-0.00730815
-0.00444499
-0.00266183
-0.00132909
-0.000453776
0.000161141
0.000578825
0.000862002
0.00105254
0.001178
0.0012585
0.00130852
0.00133803
0.00135416
0.00136174
0.00136418
0.0013638
0.00136229
0.00136066
0.00135971
-0.0851681
-0.0854632
-0.0860581
-0.0869635
-0.0881959
-0.0897782
-0.0917413
-0.0941247
-0.0969786
-0.100366
-0.104366
-0.109078
-0.114629
-0.121178
-0.128929
-0.138148
-0.149175
-0.162424
-0.178588
-0.198082
-0.222899
-0.251687
-0.291722
-0.334982
-0.393102
-0.47101
-0.542085
-0.60523
-0.615007
-0.49835
-0.341986
-0.316417
-0.207064
-0.14055
-0.0953304
-0.0573686
-0.0396338
-0.0232418
-0.0171443
-0.011895
-0.00871998
-0.00607721
-0.00438731
-0.00304997
-0.00213774
-0.00145723
-0.000966121
-0.000605784
-0.000340109
-0.000144158
1.17306e-06
0.000109681
0.000190993
0.000252104
0.000297877
0.000331817
0.000356506
0.000373619
0.000384479
0.000389723
-0.0841998
-0.0844853
-0.0850608
-0.0859358
-0.0871256
-0.088651
-0.0905401
-0.0928285
-0.0955611
-0.0987935
-0.102595
-0.107051
-0.112267
-0.118374
-0.125536
-0.13395
-0.143875
-0.155546
-0.169507
-0.185675
-0.205758
-0.227305
-0.255675
-0.288242
-0.319883
-0.358755
-0.36859
-0.344077
-0.251266
-0.0775244
0.108378
-0.0241745
-0.0739038
-0.0751902
-0.06159
-0.0395023
-0.0300799
-0.0183484
-0.0149407
-0.0112388
-0.00902811
-0.00692827
-0.00555969
-0.00437972
-0.00354423
-0.00287755
-0.002369
-0.00197123
-0.00165897
-0.00141291
-0.0012172
-0.00106059
-0.000934953
-0.000834266
-0.000754157
-0.000691423
-0.000643595
-0.000608998
-0.000586528
-0.000575419
-0.082946
-0.0832172
-0.0837635
-0.0845932
-0.0857197
-0.087161
-0.0889413
-0.0910908
-0.0936472
-0.0966568
-0.100175
-0.104271
-0.109026
-0.114535
-0.120913
-0.128283
-0.136825
-0.146597
-0.158015
-0.170565
-0.185686
-0.200346
-0.218077
-0.240207
-0.251973
-0.263973
-0.245861
-0.19406
-0.0858662
0.0597665
0.192385
0.0612234
0.00405173
-0.0247949
-0.0302464
-0.0210581
-0.0190425
-0.0124721
-0.0118174
-0.00979102
-0.00869011
-0.0072784
-0.00634965
-0.00542202
-0.00473503
-0.0041357
-0.00364973
-0.00324436
-0.00290783
-0.00262796
-0.00239384
-0.00219797
-0.00203462
-0.00189917
-0.00178831
-0.00169933
-0.00163015
-0.00157941
-0.00154603
-0.00152946
-0.0814225
-0.0816753
-0.0821839
-0.0829555
-0.0840009
-0.085335
-0.086977
-0.088951
-0.0912867
-0.0940192
-0.09719
-0.100848
-0.105049
-0.10985
-0.115325
-0.121524
-0.128564
-0.136349
-0.145191
-0.154277
-0.164809
-0.17369
-0.182998
-0.196645
-0.195929
-0.192856
-0.165498
-0.113823
-0.0278079
0.0790447
0.203181
0.13268
0.0373297
0.00115217
-0.00784129
-0.00647553
-0.00940398
-0.00722588
-0.00884551
-0.00827019
-0.00817848
-0.0074388
-0.00695868
-0.0063066
-0.00579234
-0.00528316
-0.00483994
-0.00444394
-0.00409682
-0.00379367
-0.00352936
-0.00330065
-0.00310453
-0.00293822
-0.00279947
-0.00268641
-0.00259752
-0.00253166
-0.00248819
-0.0024665
-0.0796493
-0.0798801
-0.0803443
-0.0810472
-0.0819972
-0.0832053
-0.084686
-0.0864566
-0.0885381
-0.0909545
-0.0937321
-0.0969016
-0.100492
-0.10453
-0.109056
-0.114056
-0.119588
-0.125441
-0.131875
-0.137903
-0.14454
-0.148954
-0.152245
-0.159741
-0.152467
-0.14269
-0.114021
-0.0727397
-0.00498759
0.0794948
0.130899
0.129132
0.0376806
0.00830512
0.00348398
0.00286571
-0.00260202
-0.0036397
-0.00676303
-0.0072082
-0.00787014
-0.00767518
-0.00756918
-0.00715787
-0.00679942
-0.00637521
-0.00597564
-0.00559268
-0.00523931
-0.00491708
-0.00462651
-0.00436851
-0.00414269
-0.00394798
-0.00378338
-0.00364787
-0.00354043
-0.00346048
-0.00340743
-0.00338095
-0.0776494
-0.0778557
-0.0782701
-0.0788965
-0.0797403
-0.0808091
-0.0821121
-0.0836601
-0.0854655
-0.0875411
-0.0898984
-0.0925528
-0.0955141
-0.0987823
-0.102364
-0.106192
-0.110295
-0.114374
-0.118678
-0.122157
-0.125667
-0.126805
-0.126078
-0.129546
-0.11969
-0.108577
-0.0825623
-0.039093
-0.030146
-0.0244878
0.0766879
0.00450749
0.0163439
0.00867357
0.00461449
0.00648022
0.000711909
-0.0020912
-0.00589928
-0.0069008
-0.0080091
-0.00817378
-0.00831743
-0.00807435
-0.00782643
-0.00746099
-0.00709025
-0.00671244
-0.00634876
-0.00600577
-0.00568884
-0.00540227
-0.00514775
-0.00492576
-0.00473638
-0.00457935
-0.00445426
-0.00436077
-0.00429866
-0.00426759
-0.0754482
-0.0756283
-0.0759894
-0.0765339
-0.0772647
-0.0781857
-0.0793013
-0.080616
-0.0821341
-0.0838579
-0.0857878
-0.0879266
-0.0902676
-0.0927839
-0.0954608
-0.0981947
-0.100999
-0.103521
-0.106007
-0.107435
-0.108521
-0.107355
-0.104074
-0.10501
-0.0946424
-0.0851466
-0.0715431
-0.0408727
0.0181492
0.206332
0.138031
0.063094
0.0175409
-0.00655338
-0.00261798
0.00475176
0.000696938
-0.00257146
-0.00630891
-0.00745385
-0.00870519
-0.00903333
-0.00928411
-0.00911917
-0.00892084
-0.0085759
-0.00820936
-0.0078205
-0.00743608
-0.00706605
-0.00671932
-0.00640243
-0.00611844
-0.00586902
-0.00565507
-0.00547693
-0.00533456
-0.00522798
-0.00515703
-0.00512154
-0.0730727
-0.0732255
-0.0735315
-0.0739914
-0.0746059
-0.0753756
-0.0763001
-0.0773785
-0.0786077
-0.0799828
-0.0814965
-0.0831362
-0.084881
-0.086686
-0.0885257
-0.0902711
-0.0919342
-0.0931288
-0.0941016
-0.0939091
-0.0931494
-0.0903899
-0.0855238
-0.0848681
-0.0745806
-0.0659125
-0.0659272
-0.0647279
0.122433
-0.000345811
-0.169926
0.133461
-0.0335255
-0.037461
-0.017825
-0.0015718
-0.00216735
-0.00480106
-0.00787762
-0.00884465
-0.00996641
-0.0102777
-0.0105004
-0.0103224
-0.0101078
-0.00974038
-0.00934824
-0.0089276
-0.00850799
-0.00810163
-0.00771932
-0.00736862
-0.00705308
-0.00677515
-0.00653619
-0.00633682
-0.00617729
-0.00605775
-0.00597815
-0.00593832
-0.0705503
-0.0706757
-0.0709263
-0.0713014
-0.0717997
-0.0724186
-0.0731532
-0.0739991
-0.074948
-0.0759892
-0.0771064
-0.0782746
-0.0794636
-0.0806161
-0.0817021
-0.0825767
-0.0832578
-0.0833468
-0.0830822
-0.0816296
-0.0794692
-0.0756058
-0.0697236
-0.0680559
-0.0577977
-0.0468917
-0.0258879
-0.0816951
-0.497859
-0.886822
-0.534135
-0.203611
-0.161013
-0.0811248
-0.0407717
-0.0110291
-0.00717571
-0.00835668
-0.0103711
-0.0109475
-0.0117282
-0.0118762
-0.011955
-0.0116853
-0.0113933
-0.0109605
-0.0105112
-0.0100367
-0.00956625
-0.0091129
-0.00868806
-0.00829905
-0.00794919
-0.00764112
-0.00737626
-0.00715529
-0.0069785
-0.00684606
-0.00675787
-0.00671372
-0.0679088
-0.0680073
-0.0682036
-0.0684958
-0.0688806
-0.0693527
-0.0699043
-0.0705289
-0.0712135
-0.071941
-0.0726885
-0.0734227
-0.0741079
-0.0746775
-0.0750999
-0.0752227
-0.0750733
-0.0742567
-0.0729929
-0.070574
-0.0673535
-0.0627082
-0.0561032
-0.0536723
-0.0430768
-0.0302645
-0.00296836
-0.0152498
-0.164929
-0.277667
-0.519709
-0.477751
-0.250032
-0.133255
-0.0649921
-0.0216361
-0.0135164
-0.0127873
-0.0135072
-0.0135799
-0.0138794
-0.0137633
-0.0136084
-0.0131854
-0.0127653
-0.0122295
-0.0116936
-0.0111436
-0.0106073
-0.0100967
-0.00962229
-0.00919033
-0.00880323
-0.0084633
-0.0081716
-0.00792858
-0.0077344
-0.00758905
-0.00749231
-0.0074439
-0.0651755
-0.0652482
-0.0653924
-0.0656051
-0.0658815
-0.0662147
-0.0665959
-0.0670148
-0.0674542
-0.0678926
-0.0683037
-0.0686487
-0.0688888
-0.06895
-0.0688014
-0.068288