/*--------------------------------*- C++ -*----------------------------------*\
  =========                 |
  \\      /  F ield         | OpenFOAM: The Open Source CFD Toolbox
   \\    /   O peration     | Website:  https://openfoam.org
    \\  /    A nd           | Version:  12
     \\/     M anipulation  |
\*---------------------------------------------------------------------------*/
FoamFile
{
    format      ascii;
    class       surfaceScalarField;
    location    "60";
    object      phi;
}
// * * * * * * * * * * * * * * * * * * * * * * * * * * * * * * * * * * * * * //

dimensions      [0 3 -1 0 0 0 0];

internalField   nonuniform List<scalar> 
32440
(
-3.42766e-07
0.0399883
1.31615e-06
0.0399883
-1.02431e-06
0.0399903
6.36321e-07
0.0399883
-1.70102e-06
0.0399903
-3.60067e-08
0.0399983
-3.67381e-07
0.0400103
-6.94193e-07
0.0400103
9.8587e-07
0.0400103
2.67478e-06
0.0400103
4.37528e-06
0.0400103
8.94749e-08
0.0400043
-1.81843e-07
0.0400003
-4.34266e-07
0.0400003
-6.64675e-07
0.0400002
-8.69627e-07
0.0400002
-1.0457e-06
0.0400002
-1.18947e-06
0.0400001
-1.29766e-06
0.0400001
-1.36739e-06
0.0400001
-1.39625e-06
0.04
-1.38259e-06
0.04
-1.32519e-06
0.0399999
-1.22382e-06
0.0399999
-1.07926e-06
0.0399999
-8.93232e-07
0.0399998
-6.68571e-07
0.0399998
-4.0815e-07
0.0399997
-1.71799e-06
0.0400013
-7.06348e-06
0.0400053
-8.26888e-06
0.0400012
-8.12098e-06
0.0399999
-7.76586e-06
0.0399996
-7.40942e-06
0.0399996
-6.05751e-06
0.0399986
-5.71549e-06
0.0399997
-5.3881e-06
0.0399997
-5.07948e-06
0.0399997
-4.79306e-06
0.0399997
-4.5314e-06
0.0399997
-4.29645e-06
0.0399998
-4.08927e-06
0.0399998
-3.9104e-06
0.0399998
-3.75968e-06
0.0399998
-3.63645e-06
0.0399999
-3.53967e-06
0.0399999
-3.46803e-06
0.0399999
-3.42e-06
0.04
-3.3937e-06
0.04
-3.38738e-06
0.04
-3.39904e-06
0.04
-5.42681e-06
0.040002
-1.14688e-05
0.040006
-5.52271e-06
0.0400061
-1.58687e-06
0.0400081
-1.65959e-06
0.0400101
2.60959e-07
0.0399981
1.76509e-07
0.0399881
8.87397e-08
0.0399901
0.0399881
-1.44315e-06
0.0399898
-2.88403e-06
0.0399898
-4.32373e-06
0.0399918
-5.76114e-06
0.0399898
-5.19439e-06
0.0399898
-4.62173e-06
0.0399978
-4.03994e-06
0.0400098
-5.44468e-06
0.0400117
-4.82951e-06
0.0400097
-2.1885e-06
0.0400077
4.90424e-07
0.0400076
-8.78405e-06
0.0400136
-1.40098e-05
0.0400055
-1.517e-05
0.0400014
-1.62538e-05
0.0400013
-1.72468e-05
0.0400012
-1.81352e-05
0.0400011
-1.89055e-05
0.0400009
-1.95442e-05
0.0400007
-2.00389e-05
0.0400006
-2.03776e-05
0.0400004
-2.05552e-05
0.0400002
-2.05637e-05
0.04
-2.04003e-05
0.0399997
-2.00654e-05
0.0399995
-1.93633e-05
0.0399991
-1.87018e-05
0.0399991
-1.82932e-05
0.0399993
-1.87507e-05
0.0400018
-2.33994e-05
0.04001
-2.37386e-05
0.0400015
-2.25103e-05
0.0399986
-2.12287e-05
0.0399984
-1.99155e-05
0.0399983
-1.9792e-05
0.0399985
-1.84789e-05
0.0399983
-1.71921e-05
0.0399984
-1.59488e-05
0.0399984
-1.47623e-05
0.0399985
-1.36434e-05
0.0399986
-1.26005e-05
0.0399987
-1.16392e-05
0.0399988
-1.07632e-05
0.0399989
-9.9739e-06
0.0399991
-7.2703e-06
0.0399972
-6.65086e-06
0.0399993
-6.11241e-06
0.0399994
-5.65055e-06
0.0399995
-5.2604e-06
0.0399996
-4.93663e-06
0.0399997
-6.67303e-06
0.0400017
-1.04641e-05
0.0400058
-1.23031e-05
0.0400079
-1.01833e-05
0.0400039
-8.09901e-06
0.040006
-6.04423e-06
0.040008
-1.30028e-08
0.039992
-1.99944e-06
0.0399901
2.36192e-09
0.0399881
0.0399881
-2.68198e-06
0.0399925
-5.3625e-06
0.0399925
-6.04218e-06
0.0399925
-8.72021e-06
0.0399925
-1.3394e-05
0.0399944
-1.00588e-05
0.0399944
-1.27139e-05
0.0400124
-1.3347e-05
0.0400124
-1.39527e-05
0.0400103
-1.45144e-05
0.0400082
-1.50222e-05
0.0400081
-2.54444e-05
0.040024
-2.97877e-05
0.0400098
-3.2024e-05
0.0400037
-3.41233e-05
0.0400034
-3.6067e-05
0.0400031
-3.78279e-05
0.0400028
-3.93806e-05
0.0400025
-3.66996e-05
0.0399981
-4.17615e-05
0.0400056
-4.25459e-05
0.0400012
-4.3037e-05
0.0400007
-4.32214e-05
0.0400001
-4.30918e-05
0.0399996
-4.26475e-05
0.0399991
-4.1894e-05
0.0399984
-4.08437e-05
0.0399981
-3.95128e-05
0.039998
-3.95313e-05
0.0400018
-4.34128e-05
0.0400139
-4.29345e-05
0.0400011
-4.09885e-05
0.0399967
-3.87287e-05
0.0399961
-3.63938e-05
0.039996
-3.30213e-05
0.0399952
-3.06455e-05
0.039996
-2.83012e-05
0.039996
-2.60173e-05
0.0399962
-2.38152e-05
0.0399963
-2.17169e-05
0.0399965
-1.97377e-05
0.0399967
-1.78891e-05
0.039997
-1.61789e-05
0.0399972
-1.46086e-05
0.0399975
-1.51806e-05
0.0399977
-1.38916e-05
0.039998
-1.27377e-05
0.0399982
-9.71171e-06
0.0399965
-8.80621e-06
0.0399987
-1.00126e-05
0.0400009
-1.13213e-05
0.0400031
-2.07233e-05
0.0400152
-1.42054e-05
0.0400014
-1.17588e-05
0.0400015
-9.37315e-06
0.0400036
-5.0382e-06
0.0400037
-7.43781e-07
0.0399878
-4.79586e-07
0.0399898
-2.35554e-07
0.0399878
0.0399879
-3.90262e-06
0.0399964
-7.80564e-06
0.0399964
-1.17093e-05
0.0399964
-1.56127e-05
0.0399964
-1.7513e-05
0.0399964
-2.14065e-05
0.0399983
-1.92856e-05
0.0400103
-2.11449e-05
0.0400142
-2.29646e-05
0.0400121
-2.67354e-05
0.040012
-3.04262e-05
0.0400118
-3.80102e-05
0.0400316
-4.54859e-05
0.0400173
-5.08063e-05
0.040009
-5.39453e-05
0.0400066
-5.48557e-05
0.0400041
-5.55095e-05
0.0400035
-4.78722e-05
0.0399948
-4.39046e-05
0.0399941
-5.75368e-05
0.0400193
-6.47853e-05
0.0400084
-6.56052e-05
0.0400015
-6.59763e-05
0.0400005
-6.58827e-05
0.0399995
-6.53296e-05
0.0399985
-6.43197e-05
0.0399974
-6.287e-05
0.0399966
-6.12099e-05
0.0399963
-6.0365e-05
0.0400009
-6.34763e-05
0.040017
-6.21283e-05
0.0399997
-5.92405e-05
0.0399938
-5.57748e-05
0.0399926
-5.23911e-05
0.0399926
-5.01443e-05
0.0399929
-4.66867e-05
0.0399925
-4.32656e-05
0.0399926
-3.99235e-05
0.0399928
-3.46953e-05
0.0399911
-3.16102e-05
0.0399934
-2.86912e-05
0.0399938
-2.59561e-05
0.0399943
-2.34118e-05
0.0399947
-2.10671e-05
0.0399951
-1.89224e-05
0.0399956
-1.69728e-05
0.039996
-1.52126e-05
0.0399965
-1.56343e-05
0.0399969
-1.22254e-05
0.0399953
-1.09741e-05
0.0399996
-1.98678e-05
0.040012
-1.88919e-05
0.0400142
-1.80293e-05
0.0400005
-1.52677e-05
0.0399987
-1.25924e-05
0.0400009
-3.9889e-06
0.0399951
-3.44228e-06
0.0399872
-9.38308e-07
0.0399873
-4.62609e-07
0.0399874
0.0399874
-5.08384e-06
0.0400015
-1.01708e-05
0.0400015
-1.52608e-05
0.0400015
-2.0353e-05
0.0400015
-2.54484e-05
0.0400014
-2.85386e-05
0.0400014
-2.56174e-05
0.0400074
-3.06749e-05
0.0400193
-3.5695e-05
0.0400172
-3.86551e-05
0.040015
-4.15286e-05
0.0400147
-4.62753e-05
0.0400363
-5.88708e-05
0.0400299
-6.52878e-05
0.0400154
-6.94694e-05
0.0400107
-7.33709e-05
0.040008
-7.09381e-05
0.0400011
-6.01442e-05
0.039984
-6.88862e-05
0.0400028
-8.11101e-05
0.0400315
-8.68314e-05
0.0400141
-8.79852e-05
0.0400026
-8.85484e-05
0.0400011
-8.85022e-05
0.0399995
-8.78326e-05
0.0399979
-8.65519e-05
0.0399961
-8.46815e-05
0.0399947
-8.22511e-05
0.0399939
-8.09212e-05
0.0399996
-8.32164e-05
0.0400193
-8.09698e-05
0.0399975
-7.68909e-05
0.0399897
-7.27813e-05
0.0399885
-6.81174e-05
0.0399879
-6.27659e-05
0.0399876
-5.82e-05
0.0399879
-5.3683e-05
0.0399881
-4.92683e-05
0.0399884
-4.70097e-05
0.0399888
-4.29385e-05
0.0399894
-3.90866e-05
0.03999
-3.34757e-05
0.0399886
-3.01176e-05
0.0399913
-2.70208e-05
0.0399921
-2.4182e-05
0.0399928
-2.16e-05
0.0399935
-1.92659e-05
0.0399941
-1.7165e-05
0.0399948
-1.72859e-05
0.0399954
-2.36106e-05
0.040006
-3.41248e-05
0.0400225
-2.08018e-05
0.0400009
-1.76281e-05
0.0399973
-1.65849e-05
0.0399977
-1.16528e-05
0.039996
-2.81283e-06
0.0399862
-2.04624e-06
0.0399864
-1.33415e-06
0.0399866
-6.58298e-07
0.0399867
0.0399867
-6.23679e-06
0.0400077
-1.04791e-05
0.0400057
-1.67297e-05
0.0400077
-2.2989e-05
0.0400077
-2.92568e-05
0.0400077
-3.55282e-05
0.0400077
-3.77945e-05
0.0400096
-3.80447e-05
0.0400195
-4.4262e-05
0.0400234
-5.04187e-05
0.0400211
-5.44919e-05
0.0400188
-4.24392e-05
0.0400243
-6.61552e-05
0.0400536
-7.96889e-05
0.0400289
-8.69451e-05
0.040018
-8.98635e-05
0.0400109
-8.63922e-05
0.0399976
-8.64565e-05
0.0399841
-9.39462e-05
0.0400103
-0.000104819
0.0400424
-0.000109054
0.0400184
-0.000110577
0.0400042
-0.000111349
0.0400018
-0.000111346
0.0399995
-0.00011055
0.0399971
-0.000108983
0.0399945
-0.000106464
0.0399922
-0.000103844
0.0399913
-0.000101565
0.0399973
-0.000103001
0.0400207
-9.97923e-05
0.0399943
-9.48715e-05
0.0399848
-8.92577e-05
0.0399829
-8.3845e-05
0.0399825
-7.91357e-05
0.0399828
-7.34191e-05
0.0399822
-6.57678e-05
0.0399805
-6.02544e-05
0.0399829
-5.49389e-05
0.0399835
-4.98672e-05
0.0399843
-4.50781e-05
0.0399852
-4.25893e-05
0.0399862
-3.84251e-05
0.0399872
-3.25847e-05
0.0399862
-2.90725e-05
0.0399893
-2.58775e-05
0.0399903
-2.29895e-05
0.0399913
-2.03922e-05
0.0399922
-2.0067e-05
0.0399951
-2.79946e-05
0.0400139
-2.41521e-05
0.0400186
-2.05105e-05
0.0399973
-1.90524e-05
0.0399959
-1.57536e-05
0.0399944
-4.59113e-06
0.0399848
-3.53976e-06
0.0399852
-2.57757e-06
0.0399855
-1.68183e-06
0.0399857
-8.30111e-07
0.0399858
0.0399859
-7.36906e-06
0.0400151
-1.47485e-05
0.0400131
-2.21415e-05
0.0400151
-2.95519e-05
0.0400151
-3.69813e-05
0.0400151
-4.44261e-05
0.0400151
-4.98783e-05
0.0400151
-4.93197e-05
0.040019
-5.47431e-05
0.0400288
-6.01126e-05
0.0400265
-6.73963e-05
0.0400261
-7.05549e-05
0.0400274
-7.54776e-05
0.0400586
-9.61723e-05
0.0400496
-0.000102564
0.0400244
-0.000102565
0.0400109
-8.81359e-05
0.0399832
-0.000109102
0.0400051
-0.000117402
0.0400186
-0.000126969
0.0400519
-0.000131765
0.0400232
-0.000133693
0.0400061
-0.000134703
0.0400029
-0.000134752
0.0399995
-0.000133846
0.0399962
-0.000131774
0.0399924
-0.000129173
0.0399896
-0.000125491
0.0399876
-0.000122614
0.0399945
-0.000123121
0.0400212
-0.000118856
0.03999
-0.000112613
0.0399785
-0.00010621
0.0399765
-9.91791e-05
0.0399755
-9.14374e-05
0.0399751
-8.44955e-05
0.0399753
-7.96503e-05
0.0399756
-7.29891e-05
0.0399762
-6.6582e-05
0.0399771
-5.84848e-05
0.0399762
-5.27377e-05
0.0399794
-4.73687e-05
0.0399808
-4.23947e-05
0.0399822
-3.98216e-05
0.0399836
-3.36428e-05
0.0399831
-2.98523e-05
0.0399865
-2.64299e-05
0.0399878
-2.33564e-05
0.0399891
-3.26082e-05
0.0400043
-4.61655e-05
0.0400274
-2.59855e-05
0.0399984
-2.20488e-05
0.0399933
-1.83299e-05
0.0399922
-8.79874e-06
0.0399849
-7.42595e-06
0.0399835
-6.18466e-06
0.0399839
-5.04794e-06
0.0399843
-3.9891e-06
0.0399846
-9.8203e-07
0.0399828
0.0399849
-6.47891e-06
0.0400216
-1.69771e-05
0.0400236
-2.54953e-05
0.0400236
-3.20408e-05
0.0400217
-4.0622e-05
0.0400237
-4.92361e-05
0.0400238
-5.7874e-05
0.0400237
-6.25287e-05
0.0400236
-6.51732e-05
0.0400314
-7.37842e-05
0.0400351
-8.23148e-05
0.0400346
-8.67412e-05
0.0400319
-7.09775e-05
0.0400428
-0.000100823
0.0400795
-0.000122415
0.040046
-0.000125566
0.040014
-0.000124223
0.0399818
-0.000132193
0.040013
-0.000139409
0.0400259
-0.000149754
0.0400623
-0.000155159
0.0400286
-0.000157555
0.0400085
-0.000158831
0.0400041
-0.000158974
0.0399997
-0.000157937
0.0399951
-0.000155727
0.0399902
-0.000152398
0.0399863
-0.000148014
0.0399832
-0.000144452
0.0399909
-0.000143711
0.0400205
-0.000138309
0.0399846
-0.000131014
0.0399713
-0.000123114
0.0399686
-0.000114961
0.0399674
-0.00010569
0.0399658
-9.74343e-05
0.039967
-8.93285e-05
0.0399675
-8.14587e-05
0.0399684
-7.39134e-05
0.0399696
-6.87543e-05
0.039971
-6.00314e-05
0.0399707
-5.37727e-05
0.0399745
-4.79871e-05
0.0399764
-4.26852e-05
0.0399783
-3.78587e-05
0.0399783
-3.34878e-05
0.0399821
-2.95517e-05
0.0399839
-3.00278e-05
0.0399896
-3.88826e-05
0.0400132
-3.4089e-05
0.0400226
-2.76021e-05
0.039992
-2.33991e-05
0.0399891
-1.14456e-05
0.0399802
-7.70624e-06
0.0399811
-6.14827e-06
0.0399819
-4.74066e-06
0.0399825
-3.45236e-06
0.0399831
-2.25288e-06
0.0399834
-1.11225e-06
0.0399817
0.0399838
-9.56902e-06
0.0400311
-1.91611e-05
0.0400332
-2.67831e-05
0.0400313
-3.84538e-05
0.0400334
-4.61742e-05
0.0400315
-5.59533e-05
0.0400335
-6.57852e-05
0.0400336
-7.56584e-05
0.0400335
-7.75395e-05
0.0400333
-8.54199e-05
0.040043
-9.52499e-05
0.0400444
-0.000104965
0.0400416
-0.000108504
0.0400463
-0.000125693
0.0400967
-0.000136562
0.0400569
-0.000134981
0.0400125
-0.000146812
0.0399936
-0.000155897
0.0400221
-0.000162114
0.0400321
-0.000173316
0.0400735
-0.000179447
0.0400347
-0.000182362
0.0400114
-0.000183969
0.0400057
-0.000184208
0.0399999
-0.000183034
0.0399939
-0.000180481
0.0399877
-0.000176565
0.0399824
-0.000171564
0.0399782
-0.000166609
0.0399859
-0.000164926
0.0400188
-0.00015823
0.0399779
-0.000149561
0.0399626
-0.000140022
0.0399591
-0.000130396
0.0399577
-0.000121877
0.0399573
-0.00011221
0.0399574
-0.000102743
0.039958
-9.1594e-05
0.0399572
-8.28552e-05
0.0399608
-7.46026e-05
0.0399628
-6.88734e-05
0.039965
-5.97119e-05
0.0399654
-5.31242e-05
0.0399698
-4.71053e-05
0.0399723
-4.36432e-05
0.0399748
-3.67168e-05
0.0399752
-3.42994e-05
0.0399815
-4.43496e-05
0.0399996
-6.0849e-05
0.0400297
-3.17302e-05
0.0399935
-2.69679e-05
0.0399872
-1.45316e-05
0.0399767
-1.23718e-05
0.039978
-1.04531e-05
0.0399792
-8.73866e-06
0.0399802
-7.19237e-06
0.039981
-3.77964e-06
0.0399796
-2.46554e-06
0.0399821
-3.21677e-06
0.0399824
0.0399806
-1.06302e-05
0.0400418
-1.9289e-05
0.0400418
-3.19985e-05
0.040044
-4.07676e-05
0.0400421
-5.36211e-05
0.0400443
-6.45594e-05
0.0400445
-7.35822e-05
0.0400426
-8.46869e-05
0.0400446
-9.58492e-05
0.0400445
-9.702e-05
0.0400442
-0.000106186
0.0400536
-0.000119269
0.0400547
-0.000128186
0.0400553
-0.000128807
0.0400973
-0.000143069
0.0400711
-0.000132909
0.0400023
-0.000164016
0.0400247
-0.00017631
0.0400344
-0.000187657
0.0400434
-0.000195852
0.0400817
-0.000202789
0.0400416
-0.00020831
0.0400169
-0.000210315
0.0400077
-0.000210678
0.0400003
-0.000209396
0.0399927
-0.000206426
0.0399847
-0.000201648
0.0399776
-0.000195759
0.0399723
-0.000189865
0.03998
-0.000186857
0.0400158
-0.000178503
0.0399695
-0.000168284
0.0399524
-0.000157532
0.0399483
-0.000146086
0.0399463
-0.000133961
0.0399452
-0.000122747
0.0399462
-0.000111814
0.0399471
-0.000103295
0.0399487
-9.1303e-05
0.0399488
-8.1907e-05
0.0399534
-7.31631e-05
0.0399563
-6.70891e-05
0.0399593
-5.76978e-05
0.0399604
-5.09799e-05
0.0399656
-4.49122e-05
0.0399687
-4.14638e-05
0.0399717
-3.85941e-05
0.0399786
-4.42626e-05
0.0400053
-4.04306e-05
0.0400258
-3.10334e-05
0.0399841
-1.80434e-05
0.0399742
-1.54052e-05
0.0399741
-1.30764e-05
0.0399757
-1.10141e-05
0.0399771
-9.17668e-06
0.0399783
-5.52439e-06
0.0399773
-6.01724e-06
0.0399801
-2.61922e-06
0.0399787
-1.29249e-06
0.0399811
0.0399793
-1.16574e-05
0.0400534
-2.33555e-05
0.0400535
-3.31131e-05
0.0400537
-4.69664e-05
0.040056
-5.69215e-05
0.0400543
-6.90122e-05
0.0400566
-8.12314e-05
0.0400548
-9.35791e-05
0.040057
-0.000106036
0.040057
-0.000118571
0.0400567
-0.000121121
0.0400561
-0.000131643
0.0400652
-0.000142099
0.0400657
-0.000118323
0.0400735
-0.000153958
0.0401067
-0.000173279
0.0400216
-0.000189834
0.0400413
-0.00020154
0.0400461
-0.000208176
0.0400501
-0.000211527
0.040085
-0.000229398
0.0400595
-0.000235646
0.0400232
-0.000238097
0.0400102
-0.000238664
0.0400008
-0.000237231
0.0399912
-0.000233841
0.0399813
-0.000228511
0.0399723
-0.000221557
0.0399654
-0.000214172
0.0399727
-0.000209657
0.0400113
-0.000199827
0.0399597
-0.000187811
0.0399403
-0.000174839
0.0399353
-0.000161962
0.0399334
-0.000149842
0.0399331
-0.000136935
0.0399332
-0.000122414
0.0399326
-0.000110434
0.0399367
-0.000101112
0.0399395
-8.85371e-05
0.0399408
-7.87473e-05
0.0399465
-6.9766e-05
0.0399503
-6.15936e-05
0.0399523
-5.42028e-05
0.0399582
-4.75635e-05
0.0399621
-4.56312e-05
0.0399698
-6.03523e-05
0.0399933
-6.769e-05
0.0400127
-3.75752e-05
0.0399957
-2.39526e-05
0.0399705
-1.87717e-05
0.039969
-1.5979e-05
0.0399713
-1.35243e-05
0.0399733
-9.36004e-06
0.039973
-7.43826e-06
0.0399764
-7.71637e-06
0.0399776
-4.15243e-06
0.0399766
-4.70423e-06
0.0399793
-1.33394e-06
0.0399778
0.039978
-1.26415e-05
0.0400661
-2.53357e-05
0.0400662
-3.81125e-05
0.0400665
-4.90051e-05
0.0400669
-6.40557e-05
0.0400693
-7.52729e-05
0.0400678
-9.06855e-05
0.0400702
-0.000102275
0.0400686
-0.000116056
0.0400707
-0.000129978
0.0400706
-0.000144
0.0400702
-0.000148031
0.0400692
-0.000160017
0.0400777
-0.000165874
0.0400794
-0.000171249
0.0401121
-0.00020017
0.0400505
-0.000214383
0.0400555
-0.000223685
0.0400554
-0.000227843
0.0400542
-0.000208606
0.0400658
-0.00024347
0.0400944
-0.000262572
0.0400423
-0.000267614
0.0400152
-0.000268411
0.0400016
-0.000266869
0.0399897
-0.000262772
0.0399772
-0.000256762
0.0399663
-0.000248422
0.039957
-0.000239721
0.039964
-0.000233414
0.040005
-0.000221638
0.0399479
-0.000207385
0.0399261
-0.000192694
0.0399207
-0.00017735
0.0399181
-0.000161439
0.0399172
-0.000146641
0.0399185
-0.000134376
0.0399203
-0.000118836
0.0399212
-0.000106121
0.0399268
-9.63171e-05
0.039931
-8.34752e-05
0.0399336
-7.35937e-05
0.0399404
-6.66569e-05
0.0399453
-5.6636e-05
0.0399482
-5.14744e-05
0.0399569
-5.71079e-05
0.0399754
-7.54897e-05
0.0400117
-5.25482e-05
0.0399897
-2.82124e-05
0.0399714
-2.24175e-05
0.0399647
-1.91029e-05
0.0399657
-1.62077e-05
0.0399684
-1.36778e-05
0.0399707
-1.14578e-05
0.0399708
-9.49773e-06
0.0399745
-5.75063e-06
0.0399739
-4.16986e-06
0.039975
-2.71251e-06
0.0399778
-1.33675e-06
0.0399764
0.0399766
-1.3572e-05
0.0400796
-2.72108e-05
0.0400799
-4.09561e-05
0.0400802
-5.48563e-05
0.0400808
-6.69497e-05
0.0400814
-8.12795e-05
0.0400821
-9.58657e-05
0.0400848
-0.000110718
0.0400834
-0.000125832
0.0400858
-0.000141183
0.040086
-0.000154711
0.0400837
-0.000170378
0.0400849
-0.000178045
0.0400854
-0.000189699
0.040091
-0.000171119
0.0400935
-0.000211719
0.0400911
-0.000235715
0.0400795
-0.000250794
0.0400705
-0.000260663
0.0400641
-0.000260942
0.0400661
-0.000283191
0.0401166
-0.000295372
0.0400544
-0.000299134
0.040019
-0.000300243
0.0400027
-0.000298613
0.0399881
-0.000294143
0.0399727
-0.000286959
0.0399591
-0.000277371
0.0399475
-0.000266682
0.0399533
-0.000258302
0.0399966
-0.00024425
0.0399339
-0.000227783
0.0399096
-0.000210273
0.0399031
-0.000192731
0.0399005
-0.000176562
0.039901
-0.000157672
0.0398996
-0.000141511
0.0399042
-0.000128273
0.0399079
-0.000112096
0.0399106
-9.90416e-05
0.039918
-8.91377e-05
0.0399237
-7.63849e-05
0.0399277
-6.67385e-05
0.0399357
-5.81393e-05
0.0399396
-5.65156e-05
0.0399553
-6.17953e-05
0.0399807
-5.59001e-05
0.0400058
-3.27599e-05
0.0399666
-2.62694e-05
0.0399649
-2.23691e-05
0.0399608
-1.89851e-05
0.0399623
-1.60498e-05
0.0399655
-1.15018e-05
0.0399662
-1.12798e-05
0.0399705
-7.33269e-06
0.0399705
-7.60655e-06
0.0399742
-6.05558e-06
0.0399734
-2.63386e-06
0.0399744
-1.29641e-06
0.039975
0.0399753
-1.44359e-05
0.0400941
-2.69479e-05
0.0400924
-4.16029e-05
0.0400949
-5.64531e-05
0.0400956
-7.15562e-05
0.0400965
-8.69602e-05
0.0400975
-0.000102702
0.0401006
-0.000118803
0.0400995
-0.00013527
0.0401023
-0.00015008
0.0401008
-0.000169208
0.0401028
-0.00018657
0.0401022
-0.000202059
0.0401009
-0.000209542
0.0400985
-0.000222924
0.0401069
-0.000243679
0.0401119
-0.00026184
0.0400977
-0.00027701
0.0400857
-0.00029083
0.0400779
-0.000302946
0.0400782
-0.000318855
0.0401325
-0.000328355
0.0400639
-0.000333031
0.0400237
-0.000334603
0.0400043
-0.000332869
0.0399863
-0.000327809
0.0399677
-0.000319223
0.0399505
-0.000307981
0.0399362
-0.000295345
0.0399406
-0.000284492
0.0399857
-0.00026771
0.0399171
-0.000248197
0.0398901
-0.00022806
0.039883
-0.000207782
0.0398802
-0.000187038
0.0398802
-0.000169795
0.0398823
-0.00014956
0.0398839
-0.000132521
0.0398909
-0.000118804
0.0398969
-0.000102481
0.0399016
-8.95462e-05
0.0399108
-7.79592e-05
0.0399161
-6.76587e-05
0.0399254
-6.45549e-05
0.0399365
-8.05431e-05
0.0399713
-8.75604e-05
0.0399877
-4.55027e-05
0.0399638
-3.22317e-05
0.0399533
-2.76746e-05
0.0399604
-2.17488e-05
0.0399549
-1.83705e-05
0.039959
-1.54636e-05
0.0399625
-1.29608e-05
0.0399637
-1.07987e-05
0.0399684
-8.91963e-06
0.0399686
-5.27056e-06
0.0399705
-3.79991e-06
0.039972
-2.46101e-06
0.0399731
-1.20918e-06
0.0399738
0.0399741
-1.5219e-05
0.0401093
-3.05389e-05
0.0401077
-4.60262e-05
0.0401104
-6.17583e-05
0.0401114
-7.78072e-05
0.0401126
-9.42371e-05
0.0401139
-0.000109094
0.0401154
-0.000126428
0.0401168
-0.000142239
0.0401181
-0.000162564
0.0401211
-0.000179323
0.0401196
-0.000198471
0.0401214
-0.000217926
0.0401203
-0.000237509
0.0401181
-0.000249011
0.0401184
-0.000268168
0.040131
-0.000286737
0.0401162
-0.000304354
0.0401033
-0.000320552
0.0400941
-0.000334856
0.0400925
-0.000350772
0.0401484
-0.000363888
0.0400771
-0.00036974
0.0400295
-0.000371933
0.0400065
-0.000370202
0.0399846
-0.000364415
0.0399619
-0.000354688
0.0399408
-0.000341198
0.0399227
-0.000326028
0.0399255
-0.000312146
0.0399719
-0.000292101
0.0398971
-0.000269438
0.0398675
-0.00024593
0.0398595
-0.000222476
0.0398568
-0.000198596
0.0398564
-0.000176736
0.0398605
-0.000158215
0.0398654
-0.000137262
0.03987
-0.000119967
0.0398796
-0.000104374
0.0398861
-9.04351e-05
0.0398968
-7.80957e-05
0.0399038
-6.92333e-05
0.0399165
-7.77189e-05
0.039945
-9.74502e-05
0.039991
-6.03384e-05
0.0399506
-3.81838e-05
0.0399416
-3.28958e-05
0.039948
-2.43719e-05
0.0399518
-2.25063e-05
0.039953
-1.72163e-05
0.0399537
-1.44157e-05
0.0399597
-1.203e-05
0.0399613
-7.99384e-06
0.0399643
-8.24357e-06
0.0399689
-6.7266e-06
0.039969
-5.39055e-06
0.0399706
-2.18808e-06
0.0399699
-1.07199e-06
0.0399727
0.0399731
-1.38973e-05
0.0401232
-3.19308e-05
0.0401257
-4.81606e-05
0.0401266
-6.26822e-05
0.0401259
-7.96009e-05
0.0401295
-9.69873e-05
0.0401313
-0.000114928
0.0401333
-0.000133464
0.0401354
-0.000152639
0.0401373
-0.00017046
0.0401389
-0.00019293
0.0401421
-0.000213977
0.0401424
-0.000233503
0.0401398
-0.000255358
0.0401399
-0.000275359
0.0401384
-0.000291141
0.0401468
-0.000314473
0.0401396
-0.000332891
0.0401217
-0.000351892
0.0401131
-0.000366912
0.0401075
-0.000369305
0.0401508
-0.000398421
0.0401062
-0.000409789
0.0400409
-0.000412848
0.0400096
-0.000411205
0.039983
-0.000404673
0.0399554
-0.000393284
0.0399294
-0.000377599
0.039907
-0.000359068
0.0399069
-0.000341565
0.0399544
-0.000317558
0.0398731
-0.000290816
0.0398407
-0.000263147
0.0398318
-0.000235953
0.0398296
-0.0002109
0.0398313
-0.000184113
0.0398337
-0.000161121
0.0398424
-0.000140135
0.039849
-0.000121239
0.0398607
-0.000104407
0.0398692
-8.95595e-05
0.039882
-7.85652e-05
0.0398928
-7.12733e-05
0.0399092
-7.75027e-05
0.0399512
-5.91429e-05
0.0399727
-4.39702e-05
0.0399355
-3.58677e-05
0.0399335
-3.26893e-05
0.0399448
-2.42988e-05
0.0399434
-1.86015e-05
0.0399473
-1.5491e-05
0.0399506
-1.28793e-05
0.0399571
-1.06877e-05
0.0399591
-8.84558e-06
0.0399625
-5.29256e-06
0.0399653
-3.96886e-06
0.0399677
-2.82414e-06
0.0399695
-3.80979e-06
0.0399709
-8.82829e-07
0.0399697
0.0399722
-1.64733e-05
0.0401397
-3.30933e-05
0.0401424
-4.79479e-05
0.0401415
-6.71768e-05
0.0401451
-8.28621e-05
0.0401452
-0.000101131
0.0401496
-0.000120071
0.0401523
-0.000139761
0.0401551
-0.000160263
0.0401578
-0.000181603
0.0401603
-0.000201808
0.0401623
-0.000224832
0.0401655
-0.00024858
0.0401636
-0.000272946
0.0401643
-0.000297663
0.0401631
-0.000322465
0.0401716
-0.000338928
0.040156
-0.000364644
0.0401474
-0.000382997
0.0401314
-0.000395401
0.0401199
-0.000371026
0.0401265
-0.000422474
0.0401576
-0.000451812
0.0400702
-0.000458068
0.0400158
-0.000456679
0.0399816
-0.00044935
0.039948
-0.000436054
0.0399161
-0.000417164
0.0398881
-0.000395002
0.0398848
-0.000372974
0.0399323
-0.000344124
0.0398442
-0.00031223
0.0398088
-0.000280015
0.0397996
-0.000248441
0.039798
-0.000217532
0.0398004
-0.000191452
0.0398076
-0.000163793
0.0398148
-0.000142702
0.0398279
-0.000120219
0.0398383
-0.000104229
0.0398532
-8.6615e-05
0.0398644
-7.91276e-05
0.0398853
-9.9529e-05
0.0399296
-9.97026e-05
0.0399514
-5.54054e-05
0.0399284
-3.63865e-05
0.0399164
-3.04801e-05
0.0399276
-2.55393e-05
0.0399399
-2.14143e-05
0.0399393
-1.59962e-05
0.0399419
-1.51665e-05
0.0399497
-1.08367e-05
0.0399528
-8.92066e-06
0.0399572
-7.34844e-06
0.0399609
-6.05654e-06
0.0399641
-4.98874e-06
0.0399666
-2.09498e-06
0.0399666
-1.3266e-06
0.0399701
-6.40848e-07
0.0399691
0.0399715
-1.69072e-05
0.0401566
-3.39862e-05
0.0401594
-5.13498e-05
0.0401588
-6.71306e-05
0.0401609
-8.74894e-05
0.0401655
-0.000104521
0.0401666
-0.000124374
0.0401721
-0.000145145
0.0401758
-0.000166926
0.0401796
-0.000189783
0.0401831
-0.000213752
0.0401862
-0.000236817
0.0401885
-0.000264949
0.0401917
-0.000289983
0.0401893
-0.00031774
0.0401909
-0.000345878
0.0401998
-0.000374008
0.0401842
-0.000393555
0.040167
-0.000419911
0.0401578
-0.000442233
0.0401422
-0.000449619
0.0401338
-0.000480576
0.0401886
-0.000502593
0.0400923
-0.000508591
0.0400218
-0.000507724
0.0399807
-0.000499491
0.0399398
-0.000483903
0.0399005
-0.000461607
0.0398659
-0.000434447
0.0398576
-0.000406767
0.0399046
-0.000371864
0.0398093
-0.000333943
0.0397709
-0.000296167
0.0397618
-0.000259223
0.0397611
-0.000223879
0.0397651
-0.00019217
0.0397759
-0.000163664
0.0397863
-0.000138439
0.0398027
-0.000116448
0.0398163
-9.74899e-05
0.0398343
-8.52794e-05
0.0398522
-8.94996e-05
0.0398895
-0.000109883
0.03995
-6.8249e-05
0.0399098
-4.01901e-05
0.0399003
-3.14947e-05
0.0399078
-2.79631e-05
0.0399241
-2.1413e-05
0.0399334
-1.56972e-05
0.0399336
-1.46742e-05
0.0399409
-1.02366e-05
0.0399453
-8.28055e-06
0.0399509
-6.72506e-06
0.0399556
-5.4984e-06
0.0399597
-2.53918e-06
0.0399611
-1.7903e-06
0.0399659
-3.2033e-06
0.039968
-7.36498e-07
0.0399676
-2.34529e-06
0.0399707
0.0399692
-1.71835e-05
0.0401737
-3.25558e-05
0.0401748
-5.22781e-05
0.0401786
-7.04858e-05
0.0401791
-8.73415e-05
0.0401824
-0.000109031
0.0401883
-0.000127659
0.0401908
-0.000149417
0.0401976
-0.000170389
0.0402006
-0.000194708
0.0402074
-0.000220428
0.0402119
-0.000247616
0.0402157
-0.000276219
0.0402203
-0.000306153
0.0402193
-0.000337233
0.040222
-0.000367141
0.0402297
-0.000399453
0.0402165
-0.000433605
0.0402011
-0.000458695
0.0401829
-0.00048591
0.0401694
-0.000507975
0.0401559
-0.000515494
0.0401961
-0.000551084
0.0401278
-0.000565526
0.0400363
-0.000565608
0.0399808
-0.000556561
0.0399308
-0.000538236
0.0398822
-0.000511146
0.0398388
-0.000478128
0.0398246
-0.000443368
0.0398699
-0.000400872
0.0397668
-0.000355616
0.0397256
-0.00031046
0.0397167
-0.000267396
0.039718
-0.00022916
0.0397268
-0.000191471
0.0397382
-0.000161976
0.0397568
-0.000132716
0.0397734
-0.000113393
0.0397969
-9.9692e-05
0.0398206
-8.91969e-05
0.0398417
-8.54906e-05
0.0398858
-6.42029e-05
0.0399287
-4.29412e-05
0.0398885
-3.13816e-05
0.0398888
-2.92328e-05
0.0399056
-2.6272e-05
0.0399211
-1.6292e-05
0.0399234
-1.31255e-05
0.0399304
-8.63595e-06
0.0399364
-6.6976e-06
0.0399434
-5.21531e-06
0.0399494
-4.10666e-06
0.0399545
-1.30355e-06
0.0399569
-2.74195e-06
0.0399625
-3.75686e-07
0.0399635
-1.56054e-07
0.0399678
-4.33446e-08
0.0399675
-2.88316e-10
0.0399706
0.0399692
-1.72798e-05
0.040191
-3.47843e-05
0.0401923
-5.06581e-05
0.0401944
-6.91098e-05
0.0401975
-9.03301e-05
0.0402036
-0.000108475
0.0402065
-0.00012976
0.0402121
-0.000152354
0.0402202
-0.000176424
0.0402246
-0.000202124
0.0402331
-0.000229577
0.0402394
-0.00025887
0.040245
-0.000288028
0.0402495
-0.000321014
0.0402523
-0.000353716
0.0402547
-0.000387901
0.0402639
-0.000426943
0.0402555
-0.00046436
0.0402385
-0.000501317
0.0402199
-0.000528505
0.0401966
-0.000550856
0.0401783
-0.000526471
0.0401717
-0.000592447
0.0401938
-0.000628344
0.0400721
-0.000632038
0.0399845
-0.000622266
0.039921
-0.000600465
0.0398604
-0.000568077
0.0398064
-0.00052707
0.0397836
-0.000483125
0.0398259
-0.000430979
0.0397147
-0.000376104
0.0396708
-0.000322605
0.0396632
-0.000272503
0.0396679
-0.000226306
0.0396806
-0.00018632
0.0396982
-0.000151884
0.0397223
-0.000126743
0.0397483
-0.000116412
0.0397866
-0.00012031
0.0398245
-0.000123925
0.0398453
-0.000108711
0.0398706
-5.0172e-05
0.0398702
-3.16729e-05
0.03987
-2.4912e-05
0.039882
-2.15743e-05
0.0399023
-1.53988e-05
0.039915
-1.01731e-05
0.0399182
-5.72084e-06
0.039926
-3.8911e-06
0.0399346
-2.56867e-06
0.039942
-1.65869e-06
0.0399485
9.15848e-07
0.039952
-7.7497e-07
0.0399586
1.31746e-06
0.0399604
-7.55664e-07
0.0399656
1.04157e-06
0.039966
-1.25145e-06
0.0399698
3.9421e-07
0.039969
0.0399696
-1.71722e-05
0.0402082
-3.45968e-05
0.0402097
-5.24454e-05
0.0402123
-7.09413e-05
0.040216
-8.82837e-05
0.0402209
-0.000108717
0.0402269
-0.000130453
0.0402338
-0.000153704
0.0402434
-0.00017871
0.0402496
-0.000205656
0.0402601
-0.000232722
0.0402665
-0.00026408
0.0402764
-0.000297868
0.0402833
-0.000334097
0.0402885
-0.000370744
0.0402913
-0.000403662
0.0402968
-0.000449994
0.0403019
-0.000497587
0.0402861
-0.000541378
0.0402636
-0.000584085
0.0402393
-0.000613945
0.0402081
-0.000636953
0.0401947
-0.000677836
0.0402347
-0.000702902
0.0400972
-0.000709355
0.0399909
-0.000699349
0.039911
-0.000673649
0.0398347
-0.000633576
0.0397663
-0.000582728
0.0397327
-0.00052642
0.0397696
-0.000461978
0.0396502
-0.000395542
0.0396043
-0.000331311
0.039599
-0.000272396
0.039609
-0.000219894
0.0396281
-0.000177423
0.0396557
-0.000142214
0.0396871
-0.000127611
0.0397337
-0.000116844
0.0397758
-9.51182e-05
0.0398028
-9.3434e-05
0.0398436
-5.92347e-05
0.0398364
-2.97427e-05
0.0398407
-1.83949e-05
0.0398587
-1.67621e-05
0.0398804
-1.65044e-05
0.039902
-7.36237e-06
0.0399058
-3.08971e-06
0.0399139
-1.50704e-06
0.0399244
-4.75116e-07
0.0399335
2.11525e-06
0.0399394
2.35678e-06
0.0399482
2.31892e-06
0.039952
2.05882e-06
0.0399589
1.62324e-06
0.0399609
3.05057e-06
0.0399641
3.773e-07
0.0399687
1.62877e-06
0.0399686
8.33196e-07
0.0399698
0.0399704
-1.68373e-05
0.040225
-3.39539e-05
0.0402269
-5.15431e-05
0.0402299
-6.78334e-05
0.0402323
-8.70974e-05
0.0402402
-0.000107576
0.0402474
-0.000131544
0.0402578
-0.000153227
0.0402651
-0.000178937
0.0402753
-0.000204919
0.0402861
-0.000237478
0.040299
-0.000268801
0.0403077
-0.000305127
0.0403196
-0.000344631
0.040328
-0.000387334
0.040334
-0.000429183
0.0403386
-0.000479703
0.0403524
-0.000530428
0.0403369
-0.000582516
0.0403157
-0.000634389
0.0402912
-0.000683999
0.0402577
-0.000718709
0.0402294
-0.000748956
0.0402649
-0.0007891
0.0401374
-0.000800112
0.0400019
-0.000789905
0.0399008
-0.000759725
0.0398045
-0.000710229
0.0397168
-0.000644409
0.0396669
-0.000571378
0.0396966
-0.000492969
0.0395718
-0.000411315
0.0395227
-0.000334384
0.039522
-0.000265659
0.0395403
-0.000207847
0.0395703
-0.000158868
0.0396068
-0.000137488
0.0396657
-0.000124331
0.0397205
-9.6103e-05
0.0397476
-6.54912e-05
0.0397721