/*--------------------------------*- C++ -*----------------------------------*\
  =========                 |
  \\      /  F ield         | OpenFOAM: The Open Source CFD Toolbox
   \\    /   O peration     | Website:  https://openfoam.org
    \\  /    A nd           | Version:  12
     \\/     M anipulation  |
\*---------------------------------------------------------------------------*/
FoamFile
{
    format      ascii;
    class       volVectorField;
    location    "60";
    object      U;
}
// * * * * * * * * * * * * * * * * * * * * * * * * * * * * * * * * * * * * * //

dimensions      [0 1 -1 0 0 0 0];

internalField   nonuniform List<vector> 
16227
(
(2 -9.98611e-06 4.89748e-23)
(2 -2.99161e-05 -4.87758e-23)
(2 -4.98188e-05 4.87763e-23)
(2 -6.97107e-05 4.80172e-23)
(2 -8.95704e-05 -4.80177e-23)
(2 -0.000109366 -4.67428e-23)
(2 -0.000129075 8.18634e-25)
(2 -0.000148644 9.08824e-23)
(2 -0.000168001 -1.32774e-22)
(2 -0.000187052 8.78035e-23)
(2 -0.000205689 0)
(2 -0.000223798 -8.15508e-23)
(2 -0.000241272 0)
(2 -0.000257984 0)
(2 -0.000273735 0)
(2 -0.000288356 0)
(2 -0.000301662 0)
(2 -0.000313466 0)
(2 -0.000323582 0)
(2 -0.000331833 0)
(2 -0.000338061 4.59408e-23)
(2 -0.000342134 -4.38223e-24)
(2 -0.000343946 -4.15586e-23)
(2 -0.000343433 0)
(2 -0.000340572 2.83549e-23)
(2 -0.00033539 -2.8355e-23)
(2 -0.000327965 0)
(2 -0.000318404 -8.8292e-24)
(2 -0.000306892 0)
(2 -0.000293664 0)
(2 -0.000278952 0)
(2 -0.000263027 0)
(2 -0.000246153 0)
(2 -0.000228635 5.46496e-24)
(2 -0.000210761 2.79559e-24)
(2 -0.00019281 -8.26072e-24)
(2 -0.000175034 0)
(2 -0.000157667 1.53114e-23)
(2 -0.00014091 1.91886e-24)
(2 -0.000124931 -1.72304e-23)
(2 -0.000109864 0)
(2 -9.58104e-05 0)
(2 -8.28375e-05 0)
(2 -7.09851e-05 0)
(2 -6.02637e-05 0)
(2 -5.06621e-05 0)
(2 -4.21512e-05 0)
(2 -3.46888e-05 0)
(2 -2.82145e-05 0)
(2 -2.26586e-05 0)
(2 -1.79504e-05 0)
(2 -1.40114e-05 0)
(2 -1.07663e-05 0)
(2 -8.12656e-06 0)
(2 -6.00173e-06 -1.43658e-23)
(2 -4.31479e-06 1.43664e-23)
(2 -2.98776e-06 0)
(2 -1.94071e-06 0)
(2 -1.092e-06 0)
(2 -3.56736e-07 1.44729e-23)
(2.00005 -3.84911e-05 2.51905e-25)
(2.00005 -0.000115352 0)
(2.00005 -0.000192174 0)
(2.00005 -0.000269001 0)
(2.00005 -0.00034573 8.1086e-23)
(2.00005 -0.0004223 0)
(2.00005 -0.0004986 0)
(2.00005 -0.00057447 2.29574e-22)
(2.00005 -0.000649639 -1.5237e-22)
(2.00004 -0.000723805 2.895e-22)
(2.00004 -0.00079655 -1.1368e-21)
(2.00004 -0.000867448 6.93511e-22)
(2.00004 -0.000936115 -3.37648e-22)
(2.00004 -0.00100202 0)
(2.00004 -0.00106448 0)
(2.00003 -0.00112283 0)
(2.00003 -0.00117638 0)
(2.00003 -0.00122442 0)
(2.00002 -0.00126622 0)
(2.00002 -0.00130111 0)
(2.00001 -0.00132845 0)
(2.00001 -0.00134773 0)
(2 -0.00135853 0)
(2 -0.00136056 0)
(1.99999 -0.0013537 0)
(1.99999 -0.001338 4.05133e-23)
(1.99998 -0.0013137 -4.05139e-23)
(1.99998 -0.0012812 1.49239e-23)
(1.99997 -0.00124112 0)
(1.99997 -0.00119425 0)
(1.99996 -0.00114145 0)
(1.99996 -0.00108369 0)
(1.99996 -0.00102199 0)
(1.99996 -0.000957444 0)
(1.99996 -0.000891106 0)
(1.99996 -0.00082401 -1.85881e-23)
(1.99996 -0.000757108 -3.96489e-24)
(1.99996 -0.000691248 -3.5927e-24)
(1.99996 -0.000627202 -3.23265e-24)
(1.99996 -0.000565607 2.93814e-23)
(1.99997 -0.00050698 3.4833e-23)
(1.99997 -0.000451718 -3.4834e-23)
(1.99997 -0.000400098 0)
(1.99997 -0.000352295 0)
(1.99998 -0.000308379 0)
(1.99998 -0.000268337 0)
(1.99998 -0.000232092 0)
(1.99998 -0.000199509 0)
(1.99999 -0.000170396 0)
(1.99999 -0.000144528 0)
(1.99999 -0.000121662 4.74032e-23)
(1.99999 -0.000101529 -9.50981e-23)
(1.99999 -8.38574e-05 -9.62833e-23)
(1.99999 -6.83421e-05 9.62888e-23)
(2 -5.46778e-05 -9.72322e-23)
(2 -4.25879e-05 1.46005e-22)
(2 -3.17908e-05 -4.87947e-23)
(2 -2.20018e-05 2.44981e-23)
(2 -1.29288e-05 -2.44982e-23)
(2 -4.29043e-06 1.84532e-26)
(2.00015 -6.94414e-05 -8.29416e-23)
(2.00015 -0.000208238 0)
(2.00015 -0.000347005 0)
(2.00015 -0.000485838 0)
(2.00015 -0.000624576 -8.1075e-23)
(2.00015 -0.000763105 1.59062e-22)
(2.00015 -0.000901285 -2.77425e-24)
(2.00015 -0.00103881 -2.33411e-22)
(2.00015 -0.00117525 -7.59459e-23)
(2.00014 -0.00131009 -2.90764e-22)
(2.00014 -0.00144265 2.94751e-22)
(2.00014 -0.00157203 5.58254e-22)
(2.00013 -0.00169761 -6.7435e-23)
(2.00013 -0.0018185 0)
(2.00012 -0.00193338 -6.14071e-23)
(2.00011 -0.00204112 0)
(2.0001 -0.00214045 0)
(2.00009 -0.00223005 0)
(2.00008 -0.00230862 1.85075e-22)
(2.00006 -0.00237494 -1.85052e-22)
(2.00005 -0.00242776 7.78449e-23)
(2.00003 -0.00246616 -7.78441e-23)
(2.00001 -0.00248936 0)
(1.99999 -0.00249675 5.51891e-23)
(1.99998 -0.00248809 -7.51901e-24)
(1.99996 -0.00246341 -4.7672e-23)
(1.99994 -0.00242312 0)
(1.99993 -0.00236791 0)
(1.99991 -0.00229881 0)
(1.9999 -0.00221719 0)
(1.99989 -0.00212457 -1.89081e-24)
(1.99988 -0.00202273 6.36497e-24)
(1.99988 -0.00191347 0)
(1.99987 -0.00179874 0)
(1.99987 -0.00168043 1.4858e-23)
(1.99987 -0.0015604 -1.48589e-23)
(1.99987 -0.00144034 0)
(1.99987 -0.00132178 0)
(1.99988 -0.00120612 0)
(1.99988 -0.00109446 0)
(1.99989 -0.000987779 0)
(1.9999 -0.000886775 0)
(1.9999 -0.000791964 -1.94802e-23)
(1.99991 -0.000703674 0)
(1.99992 -0.000622044 0)
(1.99993 -0.000547063 0)
(1.99993 -0.000478624 -2.25519e-23)
(1.99994 -0.000416495 4.48809e-23)
(1.99995 -0.000360358 0)
(1.99995 -0.000309843 2.3487e-23)
(1.99996 -0.000264527 0)
(1.99996 -0.000223954 4.76874e-23)
(1.99997 -0.000187638 9.65146e-23)
(1.99997 -0.000155061 2.47429e-23)
(1.99998 -0.000125713 -9.70267e-23)
(1.99998 -9.91156e-05 4.88521e-23)
(1.99998 -7.4769e-05 -4.88769e-23)
(1.99998 -5.21669e-05 0)
(1.99998 -3.08129e-05 0)
(1.99998 -1.02183e-05 -2.44575e-23)
(2.00032 -9.99007e-05 0)
(2.00032 -0.000299749 0)
(2.00032 -0.000499593 8.37389e-23)
(2.00032 -0.000699623 0)
(2.00032 -0.000899616 8.12853e-23)
(2.00032 -0.00109948 -8.12775e-23)
(2.00032 -0.00129901 0)
(2.00031 -0.00149781 2.2996e-22)
(2.00031 -0.00169529 -2.32357e-22)
(2.00031 -0.00189075 0)
(2.0003 -0.00208328 2.83951e-22)
(2.00029 -0.00227142 8.38627e-22)
(2.00028 -0.00245445 1.33996e-22)
(2.00027 -0.00263099 0)
(2.00025 -0.00279914 6.1378e-23)
(2.00024 -0.00295721 0)
(2.00022 -0.00310334 0)
(2.00019 -0.00323562 -4.00855e-22)
(2.00016 -0.00335218 4.00937e-22)
(2.00013 -0.003451 0)
(2.0001 -0.00353029 7.80827e-23)
(2.00007 -0.00358875 -7.64463e-24)
(2.00003 -0.00362505 -7.70158e-24)
(2 -0.00363828 -6.27364e-23)
(1.99996 -0.00362804 0)
(1.99992 -0.00359435 0)
(1.99989 -0.00353774 0)
(1.99985 -0.0034592 -1.26386e-23)
(1.99982 -0.00336023 2.01175e-24)
(1.9998 -0.00324279 -5.86449e-24)
(1.99977 -0.00310915 1.3949e-24)
(1.99975 -0.0029619 0)
(1.99974 -0.00280373 0)
(1.99973 -0.00263746 0)
(1.99972 -0.0024659 -1.58995e-23)
(1.99972 -0.00229172 -4.33113e-24)
(1.99972 -0.00211743 -3.93006e-24)
(1.99973 -0.00194531 -3.53962e-24)
(1.99974 -0.00177734 5.85813e-23)
(1.99975 -0.00161513 -3.08751e-23)
(1.99976 -0.00146007 0)
(1.99978 -0.00131318 -1.89387e-23)
(1.99979 -0.00117519 1.94787e-23)
(1.99981 -0.00104654 0)
(1.99982 -0.000927445 0)
(1.99984 -0.000817895 0)
(1.99985 -0.000717699 -2.23262e-23)
(1.99987 -0.000626525 0)
(1.99988 -0.000543906 0)
(1.99989 -0.000469304 -4.71737e-23)
(1.99991 -0.000402126 -9.5642e-23)
(1.99992 -0.000341681 1.91943e-22)
(1.99993 -0.000287307 -9.63625e-23)
(1.99993 -0.000238231 -1.21615e-22)
(1.99994 -0.000193773 9.73684e-23)
(1.99995 -0.000153231 0)
(1.99995 -0.000115888 0)
(1.99995 -8.10097e-05 2.45997e-23)
(1.99996 -4.79067e-05 0)
(1.99996 -1.58658e-05 0)
(2.00055 -0.000129354 0)
(2.00055 -0.000388287 0)
(2.00055 -0.000647277 9.19664e-25)
(2.00055 -0.00090664 0)
(2.00055 -0.00116615 0)
(2.00055 -0.00142574 1.62939e-22)
(2.00055 -0.00168514 2.37044e-22)
(2.00054 -0.00194395 -2.39537e-22)
(2.00054 -0.00220142 0)
(2.00053 -0.00245667 0)
(2.00052 -0.0027086 2.86886e-22)
(2.00051 -0.00295519 -1.68563e-21)
(2.00049 -0.00319568 1.36412e-22)
(2.00047 -0.00342799 -1.33127e-22)
(2.00044 -0.00364985 0)
(2.00041 -0.00385891 0)
(2.00038 -0.00405263 -2.1622e-22)
(2.00034 -0.00422859 -6.09312e-22)
(2.00029 -0.00438424 3.06303e-22)
(2.00024 -0.00451633 0)
(2.00018 -0.00462285 0)
(2.00012 -0.00470205 0)
(2.00006 -0.00475192 0)
(2 -0.0047712 5.48221e-23)
(1.99993 -0.00475925 -7.84299e-24)
(1.99987 -0.00471608 -7.73106e-24)
(1.99981 -0.00464232 -3.92551e-23)
(1.99975 -0.0045393 -1.37126e-23)
(1.9997 -0.00440899 1.9757e-24)
(1.99965 -0.00425403 8.64175e-24)
(1.99961 -0.00407749 -7.37935e-24)
(1.99958 -0.0038829 4.1553e-24)
(1.99955 -0.00367389 -7.44385e-24)
(1.99953 -0.00345426 7.44471e-24)
(1.99952 -0.00322779 1.73656e-23)
(1.99952 -0.00299806 -1.73677e-23)
(1.99952 -0.00276842 0)
(1.99953 -0.00254188 0)
(1.99955 -0.00232109 -3.21861e-23)
(1.99957 -0.00210816 3.21875e-23)
(1.99959 -0.00190485 3.7318e-23)
(1.99961 -0.00171251 -1.83853e-23)
(1.99964 -0.00153205 0)
(1.99966 -0.00136397 0)
(1.99969 -0.00120854 0)
(1.99972 -0.0010657 0)
(1.99974 -0.000935144 0)
(1.99977 -0.000816421 0)
(1.99979 -0.000708893 -2.36978e-23)
(1.99981 -0.000611823 -1.19811e-22)
(1.99983 -0.000524412 9.55618e-23)
(1.99985 -0.000445747 9.69618e-23)
(1.99987 -0.000374957 -1.45812e-22)
(1.99988 -0.000311028 9.7831e-23)
(1.99989 -0.000253099 -9.7838e-23)
(1.9999 -0.000200236 0)
(1.99991 -0.000151497 0)
(1.99991 -0.000105932 7.24416e-26)
(1.99992 -6.26571e-05 0)
(1.99992 -2.07342e-05 0)
(2.00084 -0.000158089 8.61326e-23)
(2.00084 -0.000474673 0)
(2.00084 -0.000791442 1.9255e-25)
(2.00084 -0.00110886 -8.48174e-23)
(2.00084 -0.00142677 0)
(2.00084 -0.00174512 1.13154e-24)
(2.00084 -0.00206366 1.60967e-22)
(2.00083 -0.00238192 -1.60919e-22)
(2.00082 -0.00269913 0)
(2.00081 -0.0030142 0)
(2.0008 -0.00332591 -1.48886e-22)
(2.00078 -0.0036317 -5.7625e-22)
(2.00076 -0.00393052 2.73477e-22)
(2.00072 -0.00421984 -1.33128e-22)
(2.00069 -0.00449695 0)
(2.00064 -0.00475876 1.16279e-22)
(2.00059 -0.00500205 -1.16308e-22)
(2.00052 -0.00522389 1.23061e-23)
(2.00045 -0.00542062 4.56918e-22)
(2.00037 -0.00558793 8.67822e-23)
(2.00029 -0.00572355 -9.12054e-23)
(2.0002 -0.00582504 -8.06285e-24)
(2.0001 -0.00588961 -7.08359e-23)
(2 -0.00591565 0)
(1.9999 -0.00590217 0)
(1.9998 -0.00584907 0)
(1.99971 -0.00575716 0)
(1.99962 -0.0056281 1.37068e-23)
(1.99954 -0.00546441 0)
(1.99946 -0.00526943 0)
(1.9994 -0.00504723 -3.89917e-24)
(1.99935 -0.00480237 2.48398e-24)
(1.99931 -0.00453949 0)
(1.99928 -0.00426357 0)
(1.99927 -0.00397942 0)
(1.99926 -0.00369163 0)
(1.99927 -0.0034045 2.74093e-23)
(1.99928 -0.00312177 3.42562e-24)
(1.9993 -0.00284676 -4.75949e-23)
(1.99933 -0.00258213 0)
(1.99937 -0.00233001 0)
(1.9994 -0.00209201 4.07617e-23)
(1.99944 -0.00186918 -6.19921e-23)
(1.99948 -0.0016621 0)
(1.99952 -0.001471 0)
(1.99956 -0.00129571 0)
(1.9996 -0.00113581 0)
(1.99964 -0.000990663 0)
(1.99968 -0.000859426 7.16442e-23)
(1.99971 -0.000741162 1.9324e-22)
(1.99974 -0.000634787 -1.93239e-22)
(1.99977 -0.000539221 9.77661e-23)
(1.99979 -0.00045329 -4.89649e-23)
(1.99981 -0.000375808 0)
(1.99983 -0.000305696 2.47001e-23)
(1.99984 -0.000241772 0)
(1.99986 -0.000182872 0)
(1.99987 -0.000127847 -2.46761e-23)
(1.99987 -7.56127e-05 0)
(1.99987 -2.50158e-05 2.46785e-23)
(2.00118 -0.000186291 1.33927e-24)
(2.00118 -0.000559477 0)
(2.00118 -0.000933042 0)
(2.00118 -0.00130765 8.64408e-23)
(2.00119 -0.00168325 0)
(2.00119 -0.00205985 -8.31356e-23)
(2.00118 -0.00243729 8.16927e-23)
(2.00118 -0.00281501 -1.63319e-22)
(2.00117 -0.0031923 0)
(2.00116 -0.00356786 3.04437e-22)
(2.00114 -0.0039404 -1.55569e-22)
(2.00111 -0.00430714 5.88622e-24)
(2.00108 -0.00466596 -5.59354e-22)
(2.00104 -0.00501456 2.64085e-22)
(2.00098 -0.00534941 -6.32289e-24)
(2.00092 -0.00566676 5.00019e-23)
(2.00084 -0.0059627 -1.12443e-21)
(2.00075 -0.00623359 4.73772e-22)
(2.00065 -0.00647441 6.5487e-22)
(2.00054 -0.00667997 -8.42272e-22)
(2.00042 -0.00684755 -8.85374e-23)
(2.00029 -0.00697369 7.11303e-23)
(2.00015 -0.00705478 -8.44033e-24)
(2.00001 -0.0070887 -6.26952e-23)
(1.99987 -0.00707403 0)
(1.99972 -0.00701057 0)
(1.99959 -0.00689925 0)
(1.99946 -0.00674209 0)
(1.99934 -0.00654223 -8.4409e-24)
(1.99923 -0.00630386 0)
(1.99914 -0.00603218 5.84536e-24)
(1.99907 -0.00573295 0)
(1.99901 -0.00541203 1.15697e-23)
(1.99897 -0.00507566 -1.15717e-23)
(1.99895 -0.00472989 2.1584e-23)
(1.99894 -0.00438047 4.26706e-24)
(1.99895 -0.0040327 -5.55107e-23)
(1.99898 -0.0036911 2.96545e-23)
(1.99901 -0.00335973 -1.91583e-23)
(1.99905 -0.00304179 3.59157e-23)
(1.9991 -0.00273974 2.03509e-23)
(1.99915 -0.00245541 0)
(1.99921 -0.00218994 2.12298e-23)
(1.99927 -0.00194397 0)
(1.99932 -0.00171758 0)
(1.99938 -0.00151049 2.36903e-23)
(1.99944 -0.00132205 -2.40225e-23)
(1.99949 -0.00115143 0)
(1.99954 -0.000997525 2.92461e-22)
(1.99959 -0.000859139 1.96835e-22)
(1.99963 -0.000734946 -3.91445e-22)
(1.99967 -0.000623627 -9.86588e-23)
(1.9997 -0.000523685 2.22356e-22)
(1.99973 -0.0004338 -9.89014e-23)
(1.99976 -0.000352614 -2.47063e-23)
(1.99978 -0.000278699 0)
(1.9998 -0.000210688 4.96444e-23)
(1.99981 -0.00014724 -2.47977e-23)
(1.99982 -8.70659e-05 0)
(1.99982 -2.88079e-05 6.95191e-26)
(2.00158 -0.000213946 -8.74526e-23)
(2.00158 -0.000642702 0)
(2.00159 -0.00107213 0)
(2.00159 -0.00150309 -8.76869e-23)
(2.00159 -0.00193575 -9.6174e-25)
(2.00159 -0.00237021 -8.57271e-23)
(2.00159 -0.00280646 8.47245e-23)
(2.00159 -0.00324392 2.44582e-22)
(2.00158 -0.00368191 -1.62909e-22)
(2.00156 -0.00411902 3.09994e-22)
(2.00154 -0.0045538 6.79288e-23)
(2.00151 -0.00498352 -4.501e-22)
(2.00146 -0.00540498 1.12908e-21)
(2.00141 -0.00581561 5.33896e-22)
(2.00134 -0.00621156 -5.33944e-22)
(2.00125 -0.00658813 6.1285e-23)
(2.00115 -0.0069409 -1.3951e-21)
(2.00103 -0.00726473 2.41062e-22)
(2.0009 -0.00755369 2.00154e-22)
(2.00075 -0.00780151 5.44104e-22)
(2.00058 -0.00800466 -8.61498e-23)
(2.0004 -0.00815853 0)
(2.00022 -0.00825851 0)
(2.00002 -0.00830179 5.3864e-23)
(1.99982 -0.00828648 -8.78236e-24)
(1.99963 -0.0082121 -4.50935e-23)
(1.99944 -0.00807966 0)
(1.99926 -0.00789167 -1.98902e-23)
(1.9991 -0.00765198 2.83258e-23)
(1.99895 -0.00736576 0)
(1.99883 -0.00703953 6.45695e-25)
(1.99873 -0.00668052 -1.06246e-23)
(1.99865 -0.00629605 -5.8409e-24)
(1.9986 -0.00589384 3.39874e-23)
(1.99857 -0.0054814 4.7542e-24)
(1.99856 -0.00506569 -2.44061e-23)
(1.99858 -0.00465318 0)
(1.99861 -0.00424932 3.55751e-23)
(1.99866 -0.00385885 2.77398e-24)
(1.99871 -0.00348554 -3.83608e-23)
(1.99878 -0.00313211 -4.18952e-23)
(1.99885 -0.00280063 0)
(1.99893 -0.00249221 0)
(1.99901 -0.00220742 -2.36406e-23)
(1.99909 -0.00194621 0)
(1.99917 -0.00170806 -4.80948e-23)
(1.99925 -0.00149205 2.40236e-23)
(1.99932 -0.00129708 -4.96398e-23)
(1.99939 -0.00112174 -2.9718e-22)
(1.99945 -0.000964465 -1.98442e-22)
(1.99951 -0.000823783 9.78381e-23)
(1.99956 -0.00069797 1.08655e-25)
(1.9996 -0.000585328 -1.49436e-22)
(1.99964 -0.000484327 4.99729e-23)
(1.99968 -0.000393282 0)
(1.9997 -0.000310566 0)
(1.99973 -0.000234608 1.02359e-25)
(1.99974 -0.000163874 0)
(1.99975 -9.68756e-05 0)
(1.99976 -3.20599e-05 -2.47521e-23)
(2.00204 -0.000241011 0)
(2.00204 -0.000724184 0)
(2.00204 -0.00120838 -9.03966e-23)
(2.00205 -0.00169482 8.79639e-23)
(2.00205 -0.00218384 0)
(2.00206 -0.00267576 1.73998e-22)
(2.00206 -0.00317074 -8.60957e-23)
(2.00205 -0.00366833 -8.47575e-23)
(2.00205 -0.00416779 0)
(2.00203 -0.00466776 0)
(2.002 -0.0051666 2.29861e-22)
(2.00197 -0.00566161 -1.57565e-22)
(2.00191 -0.00614911 -5.7037e-22)
(2.00184 -0.00662515 -1.68959e-21)
(2.00176 -0.00708624 0)
(2.00165 -0.00752651 2.5588e-22)
(2.00152 -0.00794105 9.42911e-22)
(2.00137 -0.00832287 2.25048e-22)
(2.00119 -0.00866522 4.01623e-22)
(2.001 -0.00896035 -1.07303e-22)
(2.00078 -0.00920365 1.6113e-22)
(2.00054 -0.00938918 -9.13794e-24)
(2.0003 -0.00951112 -9.26034e-24)
(2.00004 -0.00956572 -6.27312e-23)
(1.99978 -0.00955041 0)
(1.99952 -0.00946434 0)
(1.99927 -0.00930865 0)
(1.99903 -0.00908631 -1.0373e-23)
(1.99881 -0.00880204 6.08754e-24)
(1.99862 -0.0084622 0)
(1.99846 -0.00807493 1.95252e-24)
(1.99832 -0.00764924 -5.15769e-24)
(1.99822 -0.00719415 0)
(1.99816 -0.00671926 0)
(1.99812 -0.00623371 4.14976e-23)
(1.99812 -0.00574593 -2.77517e-23)
(1.99814 -0.00526366 -3.55176e-23)
(1.99818 -0.00479342 7.41338e-23)
(1.99824 -0.00434058 -3.86144e-23)
(1.99832 -0.00390947 0)
(1.99841 -0.00350306 6.67138e-23)
(1.99851 -0.00312353 -4.5175e-23)
(1.99862 -0.0027719 -2.42282e-23)
(1.99872 -0.00244856 4.83056e-23)
(1.99883 -0.0021532 0)
(1.99893 -0.00188498 2.44051e-23)
(1.99903 -0.00164265 -5.06911e-23)
(1.99912 -0.00142471 4.96236e-23)
(1.99921 -0.00122938 -2.03431e-22)
(1.99929 -0.00105481 9.68965e-23)
(1.99936 -0.000899238 4.86567e-23)
(1.99943 -0.000760491 2.51898e-23)
(1.99949 -0.000636742 -2.51969e-23)
(1.99954 -0.000526113 -2.50373e-23)
(1.99959 -0.000426651 5.02346e-23)
(1.99962 -0.000336537 -4.31763e-26)
(1.99965 -0.000253995 -4.99797e-23)
(1.99967 -0.0001773 2.50111e-23)
(1.99969 -0.000104769 0)
(1.99969 -3.46752e-05 0)
(2.00255 -0.000267367 0)
(2.00255 -0.000803563 0)
(2.00256 -0.00134128 1.82734e-22)
(2.00256 -0.00188209 0)
(2.00257 -0.00242665 0)
(2.00258 -0.00297554 2.01805e-24)
(2.00258 -0.00352912 0)
(2.00258 -0.00408716 8.50062e-23)
(2.00258 -0.00464902 8.33215e-23)
(2.00256 -0.00521329 -8.30937e-23)
(2.00253 -0.00577825 3.1438e-22)
(2.00249 -0.00634124 -3.143e-22)
(2.00243 -0.00689828 0)
(2.00235 -0.00744391 1.69973e-21)
(2.00224 -0.00797538 3.03964e-22)
(2.00211 -0.00848487 -2.04156e-22)
(2.00195 -0.00896714 1.50015e-21)
(2.00176 -0.00941313 -4.43884e-22)
(2.00154 -0.00981536 2.18873e-22)
(2.00129 -0.010164 0)
(2.00101 -0.0104533 1.75575e-22)
(2.00071 -0.0106755 0)
(2.00039 -0.0108233 6.27882e-23)
(2.00006 -0.0108918 -6.27962e-23)
(1.99972 -0.0108773 4.31642e-23)
(1.99939 -0.0107788 -2.4397e-23)
(1.99906 -0.0105971 0)
(1.99875 -0.010336 1.03685e-23)
(1.99847 -0.0100011 -1.5235e-23)
(1.99823 -0.00960026 -3.16653e-25)
(1.99802 -0.0091437 -1.25334e-23)
(1.99785 -0.00864257 -1.39763e-23)
(1.99772 -0.00810807 1.54965e-23)
(1.99764 -0.00755193 0)
(1.9976 -0.00698532 1.79202e-23)
(1.99759 -0.00641847 4.06708e-24)
(1.99763 -0.00586039 3.45849e-24)
(1.99769 -0.00531884 -3.92235e-23)
(1.99777 -0.00479985 4.45113e-23)
(1.99788 -0.00430826 -6.82172e-23)
(1.998 -0.00384717 2.44817e-23)
(1.99812 -0.00341875 0)
(1.99826 -0.00302384 2.42303e-23)
(1.99839 -0.00266248 -2.46658e-23)
(1.99853 -0.00233397 0)
(1.99866 -0.00203705 0)
(1.99879 -0.00177002 5.06906e-23)
(1.99891 -0.00153094 -2.77404e-24)
(1.99902 -0.00131745 -2.72598e-25)
(1.99912 -0.00112756 2.01516e-22)
(1.99921 -0.000958954 5.08343e-23)
(1.9993 -0.000809195 2.56844e-23)
(1.99937 -0.000676186 2.53849e-23)
(1.99943 -0.000557681 -9.19997e-26)
(1.99949 -0.000451508 -2.51395e-23)
(1.99953 -0.000355645 0)
(1.99957 -0.000268108 0)
(1.99959 -0.000186994 -5.00939e-23)
(1.99961 -0.000110438 0)
(1.99962 -3.65486e-05 0)
(2.00311 -0.000292836 0)
(2.00311 -0.000880365 0)
(2.00312 -0.00147 7.40399e-25)
(2.00313 -0.0020638 -9.30479e-23)
(2.00315 -0.00266277 0)
(2.00316 -0.00326788 -8.97497e-23)
(2.00317 -0.00387978 -8.87738e-23)
(2.00317 -0.00449853 1.61999e-24)
(2.00317 -0.00512364 1.94813e-24)
(2.00316 -0.00575387 8.30879e-23)
(2.00313 -0.00638729 -8.30635e-23)
(2.00309 -0.00702119 -8.05997e-23)
(2.00302 -0.00765193 1.55546e-22)
(2.00292 -0.00827228 1.19421e-21)
(2.0028 -0.00887952 2.69746e-22)
(2.00264 -0.00946522 -1.07208e-21)
(2.00245 -0.0100222 -7.35712e-22)
(2.00222 -0.0105399 4.6628e-22)
(2.00195 -0.0110099 -4.30563e-22)
(2.00164 -0.0114199 -5.90739e-22)
(2.00129 -0.0117625 -9.19369e-23)
(2.00091 -0.0120276 -4.38295e-24)
(2.00051 -0.0122063 6.29021e-23)
(2.00009 -0.012292 -1.15328e-22)
(1.99966 -0.0122798 5.24266e-23)
(1.99924 -0.0121677 -1.87661e-23)
(1.99882 -0.0119568 0)
(1.99843 -0.0116512 -7.61589e-24)
(1.99808 -0.0112581 1.98263e-24)
(1.99776 -0.010787 4.51883e-24)
(1.9975 -0.0102508 4.62277e-24)
(1.99729 -0.00966326 7.23611e-24)
(1.99713 -0.00903832 1.31918e-23)
(1.99703 -0.00839045 -2.61508e-23)
(1.99699 -0.00773308 0)
(1.99699 -0.00707862 -4.01857e-23)
(1.99704 -0.00643766 -3.27123e-24)
(1.99712 -0.00581914 4.34816e-23)
(1.99723 -0.00522975 -4.82665e-23)
(1.99737 -0.00467482 -3.55002e-24)
(1.99753 -0.00415742 -8.0069e-25)
(1.99769 -0.00367949 -7.867e-23)
(1.99786 -0.00324156 5.20194e-23)
(1.99803 -0.00284314 -2.70596e-23)
(1.9982 -0.00248299 -2.70905e-23)
(1.99837 -0.00215924 -1.06102e-22)
(1.99852 -0.00186962 3.17622e-22)
(1.99867 -0.0016116 3.61682e-24)
(1.99881 -0.00138229 4.21208e-22)
(1.99893 -0.00117953 1.5775e-22)
(1.99905 -0.00100021 -2.62461e-23)
(1.99915 -0.000841746 -5.16134e-23)
(1.99924 -0.000701659 -2.56121e-23)
(1.99932 -0.000577362 2.5614e-23)
(1.99938 -0.000466491 -2.53281e-23)
(1.99944 -0.000366802 -2.52364e-23)
(1.99948 -0.000276115 2.5237e-23)
(1.99951 -0.000192369 -4.60021e-27)
(1.99954 -0.000113529 2.50882e-23)
(1.99955 -3.75603e-05 0)
(2.00372 -0.000317196 0)
(2.00373 -0.000953912 0)
(2.00374 -0.00159346 0)
(2.00376 -0.00223844 9.46232e-23)
(2.00378 -0.00289034 -9.45926e-23)
(2.0038 -0.0035506 9.25099e-23)
(2.00381 -0.00422023 -9.24792e-23)
(2.00383 -0.00489972 0)
(2.00383 -0.00558882 0)
(2.00382 -0.00628654 -8.54549e-23)
(2.0038 -0.00699105 1.68464e-22)
(2.00375 -0.0076992 -2.46091e-24)
(2.00368 -0.00840789 -3.04335e-22)
(2.00358 -0.00910929 -8.8432e-22)
(2.00343 -0.00979834 -5.6293e-22)
(2.00325 -0.0104681 5.63711e-22)
(2.00302 -0.011108 5.11601e-22)
(2.00275 -0.0117069 -3.10194e-22)
(2.00242 -0.0122544 2.25299e-22)
(2.00204 -0.0127355 -2.27891e-23)
(2.00162 -0.0131405 3.40444e-22)
(2.00116 -0.0134564 -6.55081e-22)
(2.00066 -0.0136727 7.42447e-23)
(2.00014 -0.01378 0)
(1.9996 -0.0137719 0)
(1.99906 -0.0136453 0)
(1.99854 -0.013401 0)
(1.99805 -0.0130441 7.61241e-24)
(1.99761 -0.0125832 4.65639e-24)
(1.99722 -0.0120303 3.6039e-24)
(1.99689 -0.0114013 0)
(1.99663 -0.0107136 1.27705e-23)
(1.99645 -0.00998455 -1.22231e-23)
(1.99633 -0.00923198 1.87779e-23)
(1.99628 -0.00847219 4.15128e-23)
(1.9963 -0.00772001 -6.4825e-23)
(1.99637 -0.00698787 -4.83358e-23)
(1.99648 -0.00628597 2.21695e-23)
(1.99663 -0.00562164 0)
(1.99681 -0.00500042 2.56204e-23)
(1.997 -0.00442526 -1.94326e-24)
(1.99721 -0.00389766 -1.74182e-24)
(1.99742 -0.00341751 -2.84741e-23)
(1.99764 -0.00298361 -5.67355e-23)
(1.99785 -0.00259395 8.24747e-23)
(1.99805 -0.00224589 -2.19473e-22)
(1.99824 -0.00193631 2.19246e-22)
(1.99842 -0.00166225 -4.27879e-22)
(1.99859 -0.00142012 4.88544e-22)
(1.99874 -0.00120736 -1.59205e-22)
(1.99887 -0.00102013 0)
(1.999 -0.000855673 2.60486e-23)
(1.9991 -0.000711057 -2.60491e-23)
(1.9992 -0.000583408 0)
(1.99928 -0.000470166 0)
(1.99934 -0.000368864 0)
(1.99939 -0.000277155 0)
(1.99943 -0.000192818 0)
(1.99946 -0.000113681 0)
(1.99947 -3.75877e-05 0)
(2.00438 -0.000340174 0)
(2.00439 -0.00102341 0)
(2.00441 -0.00171031 0)
(2.00443 -0.00240419 0)
(2.00446 -0.00310701 0)
(2.00449 -0.0038209 -9.50715e-23)
(2.00452 -0.00454728 1.8873e-22)
(2.00454 -0.0052872 -9.36684e-23)
(2.00456 -0.00604082 9.02263e-23)
(2.00456 -0.00680745 -2.09908e-24)
(2.00454 -0.00758551 -8.80654e-23)
(2.0045 -0.00837172 0)
(2.00443 -0.00916295 1.59336e-22)
(2.00432 -0.00995182 4.52434e-22)
(2.00416 -0.0107307 -2.99712e-21)
(2.00395 -0.0114932 1.16606e-21)
(2.00369 -0.0122261 -5.34229e-22)
(2.00336 -0.0129173 -2.24394e-24)
(2.00298 -0.0135541 -2.83373e-22)
(2.00253 -0.0141188 3.95924e-22)
(2.00201 -0.0145973 7.53508e-22)
(2.00145 -0.0149744 -3.65284e-24)
(2.00084 -0.0152368 0)
(2.00019 -0.0153718 5.12223e-23)
(1.99953 -0.0153704 -1.21653e-23)
(1.99887 -0.0152284 -3.90894e-23)
(1.99822 -0.014946 0)
(1.99761 -0.0145291 0)
(1.99706 -0.0139884 4.31027e-24)
(1.99658 -0.0133388 -6.97734e-24)
(1.99618 -0.0126006 2.37525e-23)
(1.99587 -0.0117956 -1.13874e-23)
(1.99565 -0.0109456 0)
(1.99552 -0.0100724 -6.19128e-23)
(1.99547 -0.00919612 1.85729e-23)
(1.99551 -0.00833431 4.79334e-23)
(1.9956 -0.00750149 -5.11552e-23)
(1.99576 -0.00670907 2.61847e-23)
(1.99595 -0.00596502 2.75148e-23)
(1.99618 -0.00527479 -8.74094e-23)
(1.99642 -0.00464088 -2.13667e-24)
(1.99668 -0.00406405 -1.89796e-24)
(1.99695 -0.00354325 2.84799e-23)
(1.99721 -0.00307627 -1.45025e-24)
(1.99747 -0.00266006 0)
(1.99771 -0.00229106 5.69202e-24)
(1.99794 -0.00196495 2.26938e-22)
(1.99816 -0.00167847 -4.5178e-22)
(1.99835 -0.00142706 3.70017e-23)
(1.99853 -0.00120768 -2.73349e-23)
(1.9987 -0.00101586 0)
(1.99884 -0.000848539 2.63159e-23)
(1.99897 -0.000702337 -2.63175e-23)
(1.99908 -0.000574136 0)
(1.99917 -0.000461169 0)
(1.99925 -0.000360753 0)
(1.99931 -0.000270405 2.52214e-23)
(1.99935 -0.000187765 -2.52219e-23)
(1.99938 -0.000110554 0)
(1.9994 -3.65154e-05 0)
(2.00508 -0.000361457 0)
(2.0051 -0.00108785 0)
(2.00512 -0.00181895 0)
(2.00515 -0.0025588 0)
(2.00519 -0.00330998 0)
(2.00524 -0.00407541 9.78558e-23)
(2.00528 -0.00485708 -1.94333e-22)
(2.00532 -0.00565667 1.53133e-24)
(2.00535 -0.006475 1.78967e-24)
(2.00537 -0.00731167 -8.89535e-23)
(2.00537 -0.0081657 2.70584e-22)
(2.00533 -0.00903388 -2.68516e-24)
(2.00526 -0.00991288 -8.58583e-23)
(2.00515 -0.0107958 1.5821e-22)
(2.00498 -0.0116739 9.29907e-22)
(2.00475 -0.0125391 8.9034e-22)
(2.00445 -0.0133769 -2.95171e-23)
(2.00408 -0.0141738 -8.83106e-23)
(2.00362 -0.0149139 -1.89257e-22)
(2.00309 -0.015577 6.2565e-22)
(2.00248 -0.0161436 6.00706e-22)
(2.0018 -0.0165957 1.64449e-22)
(2.00106 -0.0169156 0)
(2.00027 -0.0170863 5.0595e-23)
(1.99946 -0.0170959 -1.3273e-23)
(1.99864 -0.0169378 -3.73599e-23)
(1.99784 -0.0166115 -7.94827e-24)
(1.9971 -0.0161239 0)
(1.99642 -0.0154883 9.2233e-24)
(1.99583 -0.0147235 -3.10865e-23)
(1.99534 -0.0138553 1.07943e-23)
(1.99497 -0.0129114 -3.836e-23)
(1.99472 -0.0119193 6.02308e-23)
(1.99458 -0.0109062 5.35367e-24)
(1.99455 -0.00989636 -2.57501e-23)
(1.9946 -0.00891095 2.65088e-23)
(1.99474 -0.00796665 0)
(1.99494 -0.00707606 0)
(1.9952 -0.00624745 -3.27777e-23)
(1.99548 -0.00548591 5.99158e-23)
(1.99579 -0.00479301 3.03327e-23)
(1.99611 -0.00416839 -2.04616e-24)
(1.99644 -0.00360953 -6.3868e-23)
(1.99676 -0.00311297 -9.1708e-23)
(1.99706 -0.00267415 3.67924e-22)
(1.99736 -0.00228828 -2.32628e-22)
(1.99763 -0.00195009 1.154e-22)
(1.99788 -0.00165571 3.36509e-22)
(1.99812 -0.00139922 -3.89322e-22)
(1.99833 -0.00117728 -5.57598e-23)
(1.99852 -0.000984701 0)
(1.99868 -0.000818084 -2.65556e-23)
(1.99883 -0.000673637 2.65569e-23)
(1.99896 -0.000548026 0)
(1.99906 -0.000438273 2.56014e-23)
(1.99915 -0.00034151 -2.56015e-23)
(1.99922 -0.000255143 0)
(1.99927 -0.00017671 0)
(1.99931 -0.000103852 0)
(1.99932 -3.4246e-05 0)
(2.00583 -0.000380687 0)
(2.00585 -0.00114618 0)
(2.00588 -0.00191761 0)
(2.00592 -0.00269977 0)
(2.00597 -0.00349606 0)
(2.00604 -0.00431027 0)
(2.0061 -0.00514505 9.95852e-23)
(2.00616 -0.00600299 -1.47085e-24)
(2.00621 -0.00688559 9.45684e-23)
(2.00625 -0.00779317 -9.82704e-23)
(2.00627 -0.00872532 8.95476e-23)
(2.00625 -0.00967924 -1.83661e-22)
(2.00619 -0.0106516 1.72207e-22)
(2.00608 -0.0116359 -6.83734e-24)
(2.00591 -0.0126228 -1.45968e-21)
(2.00566 -0.0136022 2.97755e-22)
(2.00532 -0.0145595 5.5941e-22)
(2.0049 -0.015478 4.1963e-23)
(2.00438 -0.0163391 -2.26319e-23)
(2.00376 -0.0171188 -6.92358e-22)
(2.00304 -0.0177921 6.17627e-23)
(2.00222 -0.0183369 7.8628e-23)
(2.00133 -0.0187293 -1.14983e-22)
(2.00038 -0.018947 -2.87216e-23)
(1.99938 -0.0189737 0)
(1.99838 -0.0187993 -1.33447e-23)
(1.99741 -0.0184225 7.94329e-24)
(1.99649 -0.0178507 5.9785e-24)
(1.99566 -0.017101 -6.15328e-24)
(1.99494 -0.0161973 3.97677e-23)
(1.99436 -0.0151726 -1.45141e-23)
(1.99393 -0.0140626 4.6669e-23)
(1.99364 -0.0129022 -2.36181e-23)
(1.99349 -0.0117253 8.9182e-23)
(1.99348 -0.0105617 3.93272e-24)
(1.99358 -0.0094365 -9.69326e-23)
(1.99377 -0.00836863 -6.71512e-23)
(1.99404 -0.00737183 6.71747e-23)
(1.99436 -0.00645423 0)
(1.99472 -0.00561991 3.27865e-23)
(1.99511 -0.00486902 -3.51812e-23)
(1.9955 -0.00419934 -3.67365e-23)
(1.99589 -0.00360646 -3.74406e-24)
(1.99628 -0.00308508 0)
(1.99664 -0.00262864 2.6752e-22)
(1.99699 -0.00223132 -5.00598e-22)
(1.99731 -0.00188675 -1.84591e-22)
(1.99761 -0.00158963 -5.94388e-23)
(1.99788 -0.00133305 2.83957e-23)
(1.99812 -0.00111322 -1.97168e-22)
(1.99834 -0.000924222 8.2856e-23)
(1.99853 -0.000762333 -2.72514e-23)
(1.9987 -0.000623364 0)
(1.99884 -0.0005038 0)
(1.99896 -0.000400463 0)
(1.99906 -0.000310346 -2.53403e-23)
(1.99914 -0.000230785 2.06859e-25)
(1.9992 -0.00015925 2.51349e-23)
(1.99924 -9.33369e-05 0)
(1.99926 -3.07018e-05 0)
(2.00661 -0.000397419 1.06843e-22)
(2.00664 -0.00119715 -1.07157e-22)
(2.00667 -0.00200422 0)
(2.00673 -0.00282419 1.05876e-22)
(2.0068 -0.00366148 -1.0583e-22)
(2.00688 -0.00452085 0)
(2.00697 -0.00540585 -1.02894e-22)
(2.00706 -0.00632004 1.38906e-24)
(2.00714 -0.00726586 2.0116e-22)
(2.00721 -0.00824458 9.5831e-23)
(2.00725 -0.00925658 -9.99744e-23)
(2.00726 -0.0102999 -9.5408e-23)
(2.00722 -0.0113713 0)
(2.00712 -0.0124648 0)
(2.00695 -0.0135712 1.49827e-22)
(2.00669 -0.014678 4.76252e-22)
(2.00633 -0.0157713 -6.06943e-22)
(2.00586 -0.0168306 4.11224e-22)
(2.00527 -0.0178338 -2.39491e-23)
(2.00455 -0.0187532 -4.88861e-22)
(2.00371 -0.0195567 -1.39505e-21)
(2.00274 -0.0202171 1.61931e-22)
(2.00167 -0.0207019 -1.34932e-22)
(2.00052 -0.0209823 -3.67827e-23)
(1.99931 -0.0210351 0)
(1.99809 -0.0208456 1.33339e-23)
(1.99689 -0.0204102 0)
(1.99577 -0.0197377 6.3156e-24)
(1.99476 -0.0188493 6.64574e-24)
(1.9939 -0.0177761 -6.41399e-23)
(1.9932 -0.016561 1.45396e-22)
(1.9927 -0.0152504 8.39346e-24)
(1.99238 -0.0138887 -5.64488e-23)
(1.99224 -0.0125189 5.24998e-24)
(1.99225 -0.0111773 -3.3857e-23)
(1.99241 -0.0098936 1.06103e-22)
(1.99268 -0.00868909 0)
(1.99303 -0.00757808 0)
(1.99345 -0.00656787 -7.47005e-23)
(1.9939 -0.00566077 1.08364e-24)
(1.99437 -0.00485461 1.46714e-22)
(1.99485 -0.00414446 -4.58769e-24)
(1.99533 -0.00352344 -3.88094e-24)
(1.99578 -0.00298378 2.76839e-22)
(1.99621 -0.0025164 -1.58478e-21)
(1.99662 -0.00211458 6.26944e-22)
(1.99699 -0.00177008 1.18444e-22)
(1.99733 -0.00147627 0)
(1.99764 -0.00122539 0)
(1.99792 -0.00101298 1.13185e-22)
(1.99817 -0.00083241 2.74911e-23)
(1.99838 -0.000679698 -2.74889e-23)
(1.99857 -0.000550276 0)
(1.99874 -0.000440483 -2.5931e-23)
(1.99887 -0.000346985 2.59305e-23)
(1.99898 -0.000266692 0)
(1.99907 -0.000196915 0)
(1.99914 -0.000135103 2.48379e-23)
(1.99918 -7.88434e-05 -2.4838e-23)
(1.9992 -2.58294e-05 0)
(2.00742 -0.000411238 0)
(2.00745 -0.0012394 0)