/*--------------------------------*- C++ -*----------------------------------*\
  =========                 |
  \\      /  F ield         | OpenFOAM: The Open Source CFD Toolbox
   \\    /   O peration     | Website:  https://openfoam.org
    \\  /    A nd           | Version:  12
     \\/     M anipulation  |
\*---------------------------------------------------------------------------*/
FoamFile
{
    format      ascii;
    class       volScalarField;
    location    "380";
    object      k;
}
// * * * * * * * * * * * * * * * * * * * * * * * * * * * * * * * * * * * * * //

dimensions      [0 2 -2 0 0 0 0];

internalField   nonuniform List<scalar> 
16227
(
0.00914646
0.00914648
0.00914647
0.00914651
0.0091465
0.00914654
0.00914653
0.00914651
0.00914651
0.00914653
0.00914657
0.00914659
0.00914665
0.00914665
0.00914665
0.00914665
0.00914665
0.00914665
0.00914665
0.00914665
0.00914665
0.00914665
0.00914665
0.00914665
0.00914665
0.00914665
0.00914665
0.00914666
0.00914667
0.00914664
0.00914665
0.00914665
0.00914665
0.00914665
0.00914665
0.00914665
0.00914665
0.00914665
0.00914665
0.00914665
0.00914665
0.00914665
0.00914665
0.00914665
0.00914665
0.00914665
0.00914665
0.00914663
0.00914662
0.00914662
0.00914662
0.00914661
0.00914654
0.00914654
0.00914649
0.00914649
0.00914651
0.00914649
0.00914647
0.00914646
0.00848122
0.00848124
0.00848124
0.00848127
0.00848127
0.00848131
0.0084813
0.00848127
0.00848128
0.00848129
0.00848135
0.00848137
0.00848151
0.00848157
0.00848158
0.00848158
0.00848158
0.00848158
0.00848158
0.00848158
0.00848159
0.00848161
0.00848161
0.00848161
0.00848161
0.00848161
0.00848161
0.0084816
0.00848159
0.00848154
0.00848159
0.00848161
0.00848161
0.00848161
0.00848161
0.0084816
0.00848159
0.00848159
0.00848159
0.00848159
0.00848159
0.00848159
0.00848159
0.00848157
0.00848157
0.00848156
0.00848156
0.00848156
0.00848156
0.00848155
0.00848152
0.00848146
0.00848135
0.00848133
0.00848129
0.00848127
0.00848131
0.00848123
0.00848124
0.00848122
0.00790074
0.00790076
0.00790077
0.00790078
0.00790077
0.00790087
0.00790082
0.0079008
0.00790081
0.00790082
0.00790086
0.00790088
0.00790113
0.00790119
0.0079012
0.00790121
0.00790121
0.00790121
0.00790123
0.00790117
0.00790121
0.00790122
0.00790122
0.00790122
0.00790122
0.00790122
0.00790122
0.00790123
0.00790122
0.00790115
0.00790121
0.00790123
0.00790124
0.00790124
0.00790125
0.00790125
0.00790125
0.00790124
0.00790123
0.00790124
0.00790124
0.00790124
0.00790123
0.00790122
0.00790122
0.00790122
0.00790121
0.00790121
0.0079012
0.00790118
0.00790114
0.00790094
0.00790086
0.00790085
0.00790083
0.00790082
0.00790085
0.00790076
0.00790077
0.00790075
0.00739021
0.00739023
0.00739023
0.00739025
0.00739025
0.00739031
0.00739032
0.00739028
0.00739028
0.00739027
0.00739032
0.00739037
0.00739064
0.00739071
0.00739072
0.00739073
0.00739074
0.00739075
0.00739069
0.00739056
0.00739067
0.00739071
0.00739071
0.00739072
0.00739073
0.00739073
0.00739073
0.00739073
0.00739071
0.00739064
0.00739072
0.00739075
0.00739075
0.00739076
0.00739077
0.00739079
0.0073908
0.0073908
0.00739081
0.00739081
0.00739082
0.00739081
0.00739081
0.00739082
0.00739081
0.0073908
0.00739081
0.0073908
0.0073908
0.00739077
0.00739065
0.00739045
0.00739035
0.00739037
0.00739037
0.00739038
0.00739035
0.00739028
0.00739028
0.00739026
0.00693803
0.00693805
0.00693805
0.00693807
0.00693807
0.00693812
0.00693815
0.00693808
0.00693809
0.00693808
0.00693811
0.00693817
0.00693841
0.00693853
0.00693855
0.00693854
0.00693854
0.00693852
0.0069383
0.00693823
0.00693842
0.00693849
0.00693849
0.00693849
0.00693848
0.00693848
0.00693849
0.0069385
0.00693849
0.00693841
0.00693851
0.00693856
0.00693858
0.0069386
0.00693861
0.00693864
0.00693866
0.00693869
0.0069387
0.00693871
0.00693873
0.00693875
0.00693875
0.00693875
0.00693875
0.00693876
0.00693876
0.00693876
0.00693875
0.00693867
0.00693842
0.00693831
0.00693823
0.00693826
0.00693827
0.00693832
0.00693825
0.00693818
0.00693818
0.00693816
0.00653499
0.00653501
0.006535
0.00653501
0.00653501
0.00653505
0.00653509
0.00653503
0.006535
0.00653499
0.00653499
0.00653501
0.00653512
0.0065354
0.00653545
0.00653546
0.00653544
0.00653533
0.00653509
0.00653505
0.00653527
0.00653533
0.00653532
0.00653531
0.00653532
0.00653533
0.00653534
0.00653534
0.00653534
0.00653527
0.00653539
0.00653544
0.00653549
0.00653553
0.00653557
0.00653561
0.00653565
0.00653568
0.00653572
0.00653574
0.00653577
0.00653579
0.00653581
0.00653584
0.00653584
0.00653585
0.00653586
0.00653586
0.00653585
0.00653571
0.00653546
0.00653535
0.0065353
0.00653535
0.00653539
0.00653538
0.00653532
0.00653525
0.00653525
0.00653524
0.00617369
0.0061737
0.00617369
0.0061737
0.00617369
0.00617372
0.00617375
0.00617372
0.00617367
0.00617365
0.00617361
0.0061736
0.00617369
0.00617393
0.00617405
0.00617406
0.00617401
0.00617371
0.00617358
0.00617358
0.0061738
0.00617385
0.00617383
0.00617382
0.00617383
0.00617383
0.00617384
0.00617386
0.00617387
0.00617381
0.00617395
0.00617403
0.00617408
0.00617415
0.00617422
0.00617428
0.00617434
0.00617441
0.00617446
0.00617452
0.00617456
0.0061746
0.00617464
0.00617466
0.0061747
0.00617471
0.00617472
0.00617473
0.00617466
0.00617439
0.00617425
0.00617416
0.00617416
0.00617422
0.00617423
0.00617422
0.00617417
0.00617411
0.00617412
0.0061741
0.00584813
0.00584813
0.00584812
0.00584813
0.00584811
0.00584813
0.00584815
0.00584813
0.00584806
0.005848
0.00584796
0.0058479
0.00584792
0.00584802
0.00584829
0.00584835
0.00584827
0.00584791
0.00584779
0.00584778
0.005848
0.00584805
0.00584802
0.00584801
0.005848
0.00584801
0.00584803
0.00584806
0.00584807
0.00584802
0.00584819
0.0058483
0.00584839
0.00584848
0.00584857
0.00584867
0.00584876
0.00584885
0.00584894
0.00584902
0.0058491
0.00584915
0.00584921
0.00584925
0.0058493
0.00584932
0.00584934
0.00584934
0.00584921
0.00584895
0.00584882
0.00584878
0.00584882
0.00584885
0.00584885
0.00584884
0.00584879
0.00584874
0.00584875
0.00584873
0.00555338
0.00555337
0.00555337
0.00555336
0.00555334
0.00555334
0.00555335
0.00555331
0.00555327
0.00555319
0.00555311
0.00555302
0.005553
0.00555306
0.00555336
0.00555343
0.00555324
0.0055529
0.00555279
0.00555275
0.00555297
0.00555299
0.00555296
0.00555293
0.00555292
0.00555294
0.00555296
0.005553
0.00555303
0.005553
0.00555319
0.00555333
0.00555346
0.00555359
0.00555371
0.00555384
0.00555398
0.00555411
0.00555422
0.00555433
0.00555443
0.00555453
0.0055546
0.00555466
0.00555471
0.00555477
0.00555479
0.00555473
0.00555446
0.00555433
0.00555425
0.00555428
0.00555429
0.00555432
0.00555431
0.0055543
0.00555427
0.00555421
0.00555421
0.00555421
0.00528537
0.00528537
0.00528535
0.00528534
0.00528531
0.0052853
0.0052853
0.00528524
0.00528519
0.00528512
0.00528501
0.00528488
0.00528484
0.00528489
0.00528511
0.00528516
0.00528481
0.00528457
0.00528447
0.00528443
0.00528461
0.00528463
0.00528458
0.00528455
0.00528453
0.00528454
0.00528458
0.00528463
0.00528468
0.00528467
0.00528489
0.00528506
0.00528522
0.0052854
0.00528557
0.00528574
0.00528592
0.00528609
0.00528625
0.00528639
0.00528652
0.00528664
0.00528675
0.00528684
0.00528691
0.00528697
0.005287
0.00528691
0.00528664
0.00528653
0.00528651
0.00528651
0.00528653
0.00528656
0.00528655
0.00528655
0.00528651
0.00528647
0.00528646
0.00528646
0.00504071
0.00504071
0.00504069
0.00504066
0.00504064
0.00504061
0.00504059
0.00504052
0.00504044
0.00504036
0.00504025
0.00504009
0.00503997
0.00503995
0.00503999
0.00504014
0.0050398
0.00503959
0.00503947
0.00503941
0.00503951
0.00503955
0.0050395
0.00503945
0.00503943
0.00503944
0.00503947
0.00503954
0.00503962
0.00503963
0.00503989
0.0050401
0.00504031
0.00504052
0.00504075
0.00504098
0.0050412
0.00504141
0.00504162
0.00504181
0.00504198
0.00504213
0.00504227
0.00504238
0.00504247
0.00504253
0.0050425
0.00504237
0.0050422
0.00504212
0.00504212
0.00504213
0.00504214
0.00504218
0.00504217
0.00504217
0.00504213
0.00504209
0.00504209
0.00504208
0.00481655
0.00481655
0.00481652
0.0048165
0.00481645
0.00481642
0.00481637
0.0048163
0.0048162
0.00481609
0.00481596
0.0048158
0.00481563
0.00481553
0.00481551
0.0048156
0.00481531
0.00481509
0.00481492
0.00481481
0.00481475
0.00481487
0.00481484
0.00481478
0.00481475
0.00481476
0.00481481
0.00481489
0.00481499
0.00481504
0.00481534
0.0048156
0.00481585
0.00481612
0.0048164
0.00481669
0.00481696
0.00481723
0.00481748
0.00481771
0.00481793
0.00481812
0.00481828
0.00481843
0.00481854
0.00481858
0.00481846
0.0048184
0.00481832
0.00481825
0.00481825
0.00481827
0.00481829
0.00481832
0.00481831
0.00481831
0.00481828
0.00481823
0.00481824
0.00481823
0.00461048
0.00461047
0.00461045
0.00461041
0.00461036
0.00461031
0.00461025
0.00461016
0.00461004
0.0046099
0.00460976
0.00460956
0.00460937
0.00460918
0.00460904
0.00460895
0.00460882
0.00460864
0.00460843
0.00460827
0.00460814
0.00460827
0.00460823
0.00460815
0.00460811
0.00460812
0.00460817
0.00460827
0.00460839
0.00460848
0.00460882
0.00460913
0.00460944
0.00460978
0.00461012
0.00461047
0.00461081
0.00461113
0.00461145
0.00461173
0.00461199
0.00461223
0.00461242
0.00461259
0.0046127
0.00461273
0.00461263
0.00461263
0.00461254
0.00461249
0.0046125
0.00461252
0.00461254
0.00461256
0.00461257
0.00461256
0.00461253
0.00461249
0.00461249
0.00461248
0.00442045
0.00442045
0.00442042
0.00442037
0.00442031
0.00442024
0.00442016
0.00442005
0.00441991
0.00441976
0.00441958
0.00441936
0.00441914
0.00441891
0.00441868
0.00441853
0.00441841
0.00441819
0.00441795
0.00441775
0.00441757
0.00441767
0.0044176
0.0044175
0.00441744
0.00441744
0.0044175
0.00441762
0.00441777
0.0044179
0.00441828
0.00441866
0.00441904
0.00441944
0.00441986
0.00442027
0.00442069
0.00442108
0.00442145
0.0044218
0.0044221
0.00442237
0.0044226
0.00442279
0.00442286
0.00442285
0.00442287
0.00442288
0.00442282
0.0044228
0.00442281
0.00442283
0.00442285
0.00442286
0.00442287
0.00442286
0.00442283
0.0044228
0.0044228
0.00442279
0.00424471
0.0042447
0.00424466
0.00424461
0.00424453
0.00424446
0.00424436
0.00424423
0.00424407
0.00424388
0.00424368
0.00424343
0.00424318
0.00424291
0.00424265
0.00424244
0.00424228
0.00424201
0.00424172
0.00424147
0.00424125
0.00424129
0.00424119
0.00424106
0.00424099
0.00424098
0.00424105
0.00424118
0.00424137
0.00424154
0.00424198
0.00424242
0.00424287
0.00424335
0.00424385
0.00424435
0.00424483
0.00424531
0.00424574
0.00424615
0.0042465
0.00424682
0.00424709
0.00424726
0.00424726
0.00424734
0.0042474
0.00424743
0.00424741
0.00424739
0.00424742
0.00424743
0.00424745
0.00424747
0.00424746
0.00424746
0.00424743
0.0042474
0.00424739
0.00424738
0.00408174
0.00408172
0.00408168
0.00408162
0.00408153
0.00408145
0.00408133
0.00408117
0.004081
0.00408079
0.00408054
0.00408027
0.00407998
0.00407967
0.00407937
0.00407911
0.00407888
0.00407857
0.00407822
0.00407791
0.00407765
0.00407758
0.00407748
0.00407733
0.00407724
0.00407722
0.00407729
0.00407744
0.00407766
0.00407789
0.00407839
0.0040789
0.00407944
0.00408001
0.00408059
0.00408118
0.00408176
0.00408231
0.00408282
0.00408328
0.00408369
0.00408406
0.00408435
0.00408451
0.00408455
0.00408465
0.00408473
0.00408474
0.00408474
0.00408476
0.0040848
0.00408482
0.00408483
0.00408485
0.00408485
0.00408483
0.0040848
0.00408477
0.00408477
0.00408475
0.00393023
0.00393021
0.00393016
0.00393009
0.00393
0.00392989
0.00392976
0.00392959
0.00392939
0.00392915
0.00392888
0.00392857
0.00392824
0.00392789
0.00392753
0.00392723
0.00392695
0.00392657
0.00392616
0.00392577
0.00392544
0.00392519
0.00392514
0.003925
0.00392488
0.00392485
0.00392492
0.0039251
0.00392536
0.00392564
0.0039262
0.0039268
0.00392743
0.0039281
0.00392878
0.00392947
0.00393015
0.00393078
0.00393137
0.0039319
0.00393238
0.00393277
0.00393302
0.00393317
0.00393332
0.00393346
0.00393356
0.00393357
0.00393358
0.00393363
0.00393366
0.00393368
0.00393369
0.0039337
0.00393369
0.00393368
0.00393365
0.00393361
0.00393361
0.00393359
0.00378905
0.00378902
0.00378897
0.00378889
0.00378879
0.00378868
0.00378852
0.00378833
0.0037881
0.00378784
0.00378754
0.00378719
0.00378682
0.00378643
0.00378602
0.00378565
0.00378531
0.00378488
0.0037844
0.00378394
0.00378353
0.00378317
0.0037831
0.00378293
0.00378278
0.00378273
0.0037828
0.003783
0.00378329
0.00378364
0.00378429
0.00378498
0.00378571
0.00378649
0.0037873
0.00378809
0.00378887
0.0037896
0.00379027
0.00379087
0.00379139
0.0037918
0.00379199
0.00379223
0.00379244
0.00379262
0.00379273
0.00379275
0.00379278
0.00379282
0.00379285
0.00379287
0.00379287
0.00379288
0.00379287
0.00379284
0.00379281
0.00379278
0.00379277
0.00379276
0.0036572
0.00365717
0.00365711
0.00365703
0.00365692
0.00365679
0.00365663
0.00365641
0.00365616
0.00365587
0.00365554
0.00365516
0.00365474
0.0036543
0.00365384
0.00365341
0.003653
0.00365249
0.00365196
0.00365142
0.00365092
0.00365051
0.00365031
0.00365012
0.00364994
0.00364987
0.00364994
0.00365016
0.0036505
0.00365092
0.00365165
0.00365245
0.0036533
0.00365421
0.00365514
0.00365607
0.00365695
0.00365778
0.00365853
0.00365919
0.00365977
0.00366019
0.00366043
0.00366071
0.00366095
0.00366113
0.00366121
0.00366125
0.00366131
0.00366136
0.00366138
0.00366139
0.00366139
0.00366139
0.00366137
0.00366134
0.0036613
0.00366127
0.00366126
0.00366124
0.00353381
0.00353378
0.00353372
0.00353363
0.00353351
0.00353337
0.00353319
0.00353296
0.00353269
0.00353237
0.00353201
0.00353159
0.00353114
0.00353065
0.00353013
0.00352962
0.00352913
0.00352857
0.00352795
0.00352734
0.00352674
0.00352623
0.00352583
0.00352568
0.00352549
0.0035254
0.00352546
0.0035257
0.0035261
0.0035266
0.00352743
0.00352836
0.00352935
0.0035304
0.00353147
0.00353253
0.00353353
0.00353446
0.00353527
0.00353597
0.00353655
0.00353699
0.00353735
0.00353768
0.00353795
0.00353812
0.0035382
0.00353825
0.00353832
0.00353836
0.00353838
0.00353837
0.00353837
0.00353835
0.00353833
0.00353829
0.00353825
0.00353821
0.0035382
0.00353818
0.00341812
0.00341809
0.00341803
0.00341793
0.0034178
0.00341765
0.00341746
0.00341721
0.00341692
0.00341657
0.00341619
0.00341573
0.00341524
0.0034147
0.00341411
0.0034135
0.00341292
0.00341232
0.00341164
0.00341094
0.00341026
0.00340963
0.00340912
0.00340892
0.00340868
0.00340855
0.00340861
0.00340888
0.00340933
0.00340992
0.00341087
0.00341194
0.0034131
0.00341431
0.00341554
0.00341674
0.00341787
0.00341888
0.00341976
0.00342052
0.00342109
0.00342159
0.00342203
0.0034224
0.00342266
0.0034228
0.00342288
0.00342297
0.00342303
0.00342306
0.00342307
0.00342305
0.00342303
0.00342301
0.00342297
0.00342293
0.00342288
0.00342284
0.00342283
0.00342281
0.00330945
0.00330942
0.00330935
0.00330926
0.00330911
0.00330895
0.00330874
0.00330849
0.00330818
0.00330781
0.00330739
0.00330691
0.00330638
0.00330579
0.00330514
0.00330446
0.00330379
0.00330312
0.00330236
0.00330156
0.00330078
0.00330007
0.00329946
0.00329913
0.00329885
0.00329868
0.00329873
0.00329903
0.00329956
0.00330027
0.00330135
0.00330259
0.00330392
0.00330532
0.00330673
0.00330809
0.00330931
0.00331039
0.00331135
0.00331217
0.00331279
0.00331334
0.00331381
0.00331417
0.00331441
0.00331454
0.00331463
0.00331471
0.00331476
0.00331478
0.00331477
0.00331474
0.0033147
0.00331467
0.00331462
0.00331457
0.00331452
0.00331448
0.00331445
0.00331443
0.0032072
0.00320717
0.0032071
0.00320699
0.00320685
0.00320668
0.00320646
0.00320619
0.00320587
0.00320548
0.00320504
0.00320452
0.00320396
0.00320332
0.00320262
0.00320188
0.00320112
0.00320036
0.00319952
0.00319863
0.00319775
0.00319692
0.00319623
0.00319572
0.0031955
0.00319527
0.00319532
0.00319565
0.00319627
0.00319709
0.00319834
0.00319977
0.00320131
0.00320292
0.00320453
0.00320607
0.0032073
0.00320844
0.0032094
0.00321026
0.00321098
0.00321157
0.00321204
0.00321237
0.00321257
0.00321271
0.00321281
0.00321288
0.00321291
0.0032129
0.00321288
0.00321283
0.00321278
0.00321273
0.00321267
0.00321261
0.00321255
0.0032125
0.00321247
0.00321245
0.00311083
0.0031108
0.00311073
0.00311062
0.00311047
0.00311029
0.00311007
0.00310979
0.00310945
0.00310905
0.00310859
0.00310805
0.00310745
0.00310677
0.00310603
0.00310521
0.00310435
0.00310347
0.00310257
0.00310162
0.00310065
0.00309973
0.00309896
0.00309847
0.00314512
0.00314494
0.00314498
0.00314533
0.003146
0.00314688
0.00314821
0.00314976
0.00315141
0.00315314
0.00315487
0.00315651
0.00311221
0.00311257
0.00311355
0.00311444
0.00311518
0.00311577
0.00311621
0.00311648
0.00311666
0.0031168
0.00311689
0.00311694
0.00311693
0.00311691
0.00311686
0.00311679
0.00311672
0.00311665
0.00311658
0.00311651
0.00311644
0.00311639
0.00311635
0.00311633
0.00301987
0.00301983
0.00301976
0.00301965
0.0030195
0.00301932
0.0030191
0.0030188
0.00301846
0.00301805
0.00301757
0.00301701
0.00301638
0.00301567
0.00301488
0.00301401
0.00301306
0.00301208
0.00301109
0.0030101
0.00300906
0.0030081
0.00300745
0.00305101
0.00304884
0.0030488
0.00304882
0.00304922
0.00305
0.00305105
0.00305257
0.00305435
0.00305625
0.00305824
0.00306022
0.00306195
0.0030656
0.00302315
0.00302339
0.00302422
0.00302493
0.00302547
0.00302585
0.00302607
0.00302622
0.00302633
0.00302638
0.00302639
0.00302636
0.0030263
0.00302622
0.00302613
0.00302604
0.00302596
0.00302587
0.00302579
0.00302571
0.00302565
0.00302561
0.00302558
0.00293388
0.00293384
0.00293377
0.00293366
0.00293352
0.00293333
0.0029331
0.00293281
0.00293246
0.00293205
0.00293156
0.00293099
0.00293034
0.0029296
0.00292878
0.00292786
0.00292686
0.00292581
0.00292474
0.00292368
0.0029226
0.00292167
0.00292102
0.0029603
0.00295851
0.00298019
0.00298027
0.00298077
0.00298166
0.00298282
0.00298445
0.00298634
0.0029884
0.00299058
0.0029928
0.00297384
0.00297667
0.0029389
0.00293848
0.00293917
0.00293978
0.00294021
0.00294049
0.00294066
0.00294078
0.00294085
0.00294086
0.00294082
0.00294075
0.00294065
0.00294055
0.00294043
0.00294032
0.00294021
0.00294011
0.00294002
0.00293993
0.00293986
0.00293982
0.00293978
0.00285249
0.00285244
0.00285237
0.00285227
0.00285213
0.00285194
0.00285172
0.00285143
0.00285108
0.00285067
0.00285018
0.0028496
0.00284894
0.00284819
0.00284735
0.0028464
0.00284537
0.00284426
0.00284312
0.002842
0.00284094
0.00284013
0.00283951
0.00287478
0.00287386
0.00289261
0.0028934
0.00289422
0.00289533
0.00289665
0.00289823
0.00290009
0.00290221
0.00290454
0.00290695
0.00289176
0.00289306
0.00285959
0.00285851
0.00285892
0.00285934
0.00285962
0.0028598
0.00285991
0.00285997
0.00285997
0.00285992
0.00285983
0.00285971
0.00285958
0.00285943
0.00285929
0.00285915
0.00285903
0.00285891
0.0028588
0.0028587
0.00285863
0.00285858
0.00285855
0.00277533
0.00277528
0.00277522
0.00277512
0.00277498
0.00277481
0.00277459
0.00277431
0.00277397
0.00277356
0.00277308
0.0027725
0.00277185
0.0027711
0.00277025
0.0027693
0.00276826
0.00276714
0.00276598
0.00276484
0.00276383
0.00276323
0.00276268
0.00279446
0.00279464
0.00280981
0.00281241
0.00281422
0.00281615
0.00281798
0.00281954
0.00282098
0.00282259
0.0028245
0.00282681
0.00281523
0.00281463
0.00278493
0.00278315
0.00278312
0.00278328
0.00278338
0.00278344
0.00278346
0.00278342
0.00278333
0.00278321
0.00278306
0.00278289
0.00278272
0.00278254
0.00278237
0.0027822
0.00278206
0.00278192
0.0027818
0.00278169
0.00278161
0.00278156
0.00278152
0.0027021
0.00270206
0.002702
0.00270191
0.00270178
0.00270161
0.0027014
0.00270114
0.00270081
0.00270042
0.00269995
0.00269939
0.00269876
0.00269803
0.0026972
0.00269627
0.00269525
0.00269417
0.00269306
0.00269199
0.00269114
0.0026908
0.0026904
0.00271932
0.00272101
0.00273249
0.00273867
0.00274317
0.00274782
0.0027516
0.00275315
0.00275265
0.00275174
0.00275144
0.00275236
0.00274467
0.00274133
0.00271459
0.00271213
0.00271147
0.00271133
0.00271121
0.0027111
0.00271096
0.0027108
0.00271062
0.00271042
0.0027102
0.00270998
0.00270976
0.00270955
0.00270934
0.00270915
0.00270898
0.00270883
0.0027087
0.00270858
0.00270849
0.00270843
0.00270839
0.00263252
0.00263248
0.00263242
0.00263234
0.00263222
0.00263207
0.00263187
0.00263163
0.00263132
0.00263095
0.00263051
0.00262999
0.00262938
0.00262869
0.00262791
0.00262703
0.00262608
0.00262509
0.00262411
0.00262325
0.00262276
0.00262273
0.0026227
0.00264967
0.00265295
0.00266201
0.00267621
0.0026876
0.00270221
0.00271501
0.00271729
0.00270839
0.00269681
0.00268852
0.00268447
0.00268007
0.00267317
0.00264828
0.00264526
0.00264382
0.00264323
0.00264279
0.00264244
0.00264212
0.00264183
0.00264153
0.00264124
0.00264096
0.00264068
0.00264041
0.00264016
0.00263992
0.00263971
0.00263952
0.00263935
0.0026392
0.00263907
0.00263898
0.00263891
0.00263887
0.00256632
0.00256628
0.00256623
0.00256616
0.00256605
0.00256592
0.00256575
0.00256552
0.00256525
0.00256491
0.00256451
0.00256403
0.00256348
0.00256285
0.00256213
0.00256135
0.00256051
0.00255968
0.00255893
0.00255842
0.00255853
0.00255898
0.00255989
0.00258615
0.00259059
0.00260291
0.00263254
0.00266549
0.00272345
0.00278997
0.00279994
0.00274366
0.00268203
0.00264427
0.00262593
0.00262089
0.00261036
0.00258568
0.00258226
0.00257986
0.00257867
0.00257782
0.00257719
0.00257667
0.00257621
0.0025758
0.00257542
0.00257506
0.00257473
0.00257441
0.00257412
0.00257386
0.00257362
0.00257341
0.00257322
0.00257306
0.00257292
0.00257282
0.00257275
0.0025727
0.00250328
0.00250324
0.00250319
0.00250313
0.00250304
0.00250293
0.00250278
0.00250259
0.00250235
0.00250206
0.00250171
0.00250129
0.0025008
0.00250026
0.00249965
0.002499
0.00249834
0.00249775
0.00249735
0.00249737
0.00249834
0.00249958
0.00250274
0.00252991
0.00253536
0.00256163
0.00261961
0.00272084
0.00288223
0.00304456
0.00307788
0.00296131
0.00279092
0.00264169
0.00258349
0.00256557
0.00255316
0.00252652
0.00252282
0.00251927
0.00251734
0.00251602
0.00251507
0.00251432
0.00251371
0.00251318
0.0025127
0.00251227
0.00251188
0.00251152
0.0025112
0.0025109
0.00251064
0.00251041
0.00251021
0.00251004
0.00250989
0.00250978
0.00250971
0.00250966
0.00244316
0.00244312
0.00244309
0.00244304
0.00244297
0.00244288
0.00244276
0.0024426
0.00244241
0.00244217
0.00244188
0.00244154
0.00244115
0.00244071
0.00244024
0.00243977
0.00243935
0.00243909
0.00243918
0.00243994
0.00244205
0.00244469
0.00245219
0.00248205
0.0024914
0.00254389
0.00264391
0.00283921
0.0032033
0.00409697
0.00412235
0.00348204
0.00302644
0.00273144
0.00256868
0.00251271
0.00250198
0.00247027
0.00246649
0.00246171
0.00245895
0.0024571
0.00245581
0.00245484
0.00245406
0.00245341
0.00245285
0.00245236
0.00245191
0.00245152
0.00245116
0.00245084
0.00245055
0.00245031
0.00245009
0.00244991
0.00244976
0.00244964
0.00244957
0.00244952
0.00238578
0.00238574
0.00238572
0.00238569
0.00238564
0.00238557
0.00238549
0.00238537
0.00238523
0.00238505
0.00238483
0.00238458
0.0023843
0.002384
0.0023837
0.00238345
0.00238334
0.00238352
0.00238425
0.00238598
0.00238958
0.00239476
0.00240954
0.00244364
0.00246457
0.00255185
0.00268633
0.0029416
0.00462124
0.00523351
0.00339717
0.00292321
0.00259366
0.00246145
0.00245663
0.00241659
0.00241285
0.00240682
0.00240317
0.00240079
0.00239917
0.00239798
0.00239705
0.00239629
0.00239565
0.0023951
0.00239461
0.00239418
0.00239379
0.00239345
0.00239315
0.0023929
0.00239267
0.00239249
0.00239233
0.00239221
0.00239214
0.00239208
0.00233095
0.00233092
0.00233091
0.00233089
0.00233086
0.00233083
0.00233078
0.00233071
0.00233062
0.00233051
0.00233038
0.00233022
0.00233007
0.00232993
0.00232984
0.00232987
0.00233013
0.00233085
0.00233237
0.00233532
0.00234084
0.00235045
0.00237637
0.00241662
0.0024638
0.00259297
0.00276885
0.00351708
0.0311348
0.0805021
0.0230614
0.00382877
0.00314939
0.00265525
0.00241436
0.00241673
0.0023655
0.00236157
0.00235435
0.00234979
0.00234692
0.00234499
0.00234359
0.00234253
0.00234168
0.00234097
0.00234037
0.00233984
0.00233938
0.00233897
0.00233861
0.0023383
0.00233803
0.0023378
0.0023376
0.00233744
0.00233732
0.00233724
0.00233719
0.00227851
0.00227848
0.00227848
0.00227848
0.00227848
0.00227847
0.00227846
0.00227844
0.00227841
0.00227837
0.00227834
0.0022783
0.00227829
0.00227833
0.00227848
0.00227882
0.00227952
0.00228087
0.00228333
0.00228773
0.00229576
0.00231244
0.00235412
0.00240421
0.0025034
0.00269057
0.00316229
0.0140364
0.159819
0.204797
0.329943
0.0124061
0.0043812
0.00342682
0.00273063
0.00237993
0.00238043
0.00231721
0.00231224
0.00230395
0.00229854
0.00229524
0.00229304
0.00229148
0.00229031
0.00228938
0.00228862
0.00228797
0.00228742
0.00228693
0.00228651
0.00228613
0.0022858
0.00228553
0.00228529
0.00228509
0.00228492
0.0022848
0.00228472
0.00228466
0.0022283
0.00222828
0.00222829
0.00222831
0.00222833
0.00222836
0.00222839
0.00222842
0.00222845
0.00222849
0.00222855
0.00222864
0.00222878
0.00222902
0.00222943
0.00223012
0.00223131
0.00223335
0.00223685
0.00224291
0.00225415
0.00228084
0.00234286
0.00240954
0.0025972
0.00288311
0.00647214
0.0924215
0.145405
0.128928
0.0831104
0.00861732
0.00502432
0.00367755
0.00277906
0.00236323
0.00234511
0.0022719
0.00226463
0.00225532
0.0022492
0.00224556
0.00224315
0.00224147
0.00224021
0.00223923
0.00223843
0.00223776
0.00223719
0.00223669
0.00223625
0.00223586
0.00223553
0.00223524
0.00223499
0.00223479
0.00223462
0.00223449
0.00223441
0.00223435
0.00218019
0.00218017
0.0021802
0.00218023
0.00218028
0.00218034
0.00218041
0.00218049
0.00218059
0.00218071
0.00218087
0.00218108
0.00218139
0.00218184
0.00218252
0.00218357
0.00218525
0.00218802
0.00219263
0.00220055
0.0022156
0.00225448
0.00233973
0.0024317
0.00274373
0.00335659
0.0200949
0.130462
0.0588402
0.0428471
0.0231033
0.00884256
0.00564103
0.0037977
0.00277149
0.00235949
0.00230855
0.00222946
0.00221859
0.00220823
0.0022016
0.00219773
0.00219518
0.00219341
0.00219211
0.0021911
0.00219028
0.00218959
0.00218901
0.0021885
0.00218805
0.00218766
0.00218732
0.00218703
0.00218678
0.00218657
0.00218641
0.00218627
0.00218619
0.00218613
0.00213404
0.00213403
0.00213407
0.00213412
0.00213419
0.00213428
0.00213439
0.00213453
0.00213469
0.00213489
0.00213516
0.0021355
0.00213596
0.00213661
0.00213755
0.00213895
0.00214115
0.00214471
0.00215046
0.00216027
0.00217926
0.00223085
0.00233885
0.00246213
0.00290791
0.00423489
0.0340564
0.0964529
0.0323963
0.0254271
0.0207616
0.011033
0.00651335
0.00388376
0.00273372
0.00235413
0.00227013
0.00218951
0.00217403
0.00216252
0.00215562
0.0021516
0.00214899
0.00214719
0.00214587
0.00214486
0.00214403
0.00214335
0.00214276
0.00214225
0.0021418
0.00214141
0.00214107
0.00214077
0.00214052
0.00214031
0.00214014
0.00214001
0.00213993
0.00213987
0.00208974
0.00208973
0.00208978
0.00208985
0.00208994
0.00209007
0.00209022
0.0020904
0.00209063
0.00209091
0.00209127
0.00209174
0.00209235
0.00209316
0.00209436
0.00209617
0.00209892
0.00210325
0.00211006
0.00212164
0.00214411
0.00220709
0.00233372
0.00248673
0.00302816
0.00495197
0.0374063
0.0858628
0.0416481
0.109291
0.0943467
0.0352022
0.00916103
0.00411466
0.00271178
0.00232903
0.00223101
0.00215119
0.0021308
0.00211811
0.00211116
0.00210706
0.00210445
0.00210269
0.0021014
0.0021004
0.00209959
0.00209891
0.00209833
0.00209782
0.00209738
0.00209699
0.00209665
0.00209635
0.0020961
0.0020959
0.00209572
0.00209559
0.00209551
0.00209545
0.00204718
0.00204717
0.00204723
0.00204732
0.00204743
0.00204758
0.00204777
0.002048
0.00204829
0.00204865
0.00204909
0.00204966
0.0020504
0.00205143
0.00205292
0.0020551
0.00205834
0.00206338
0.00207112
0.00208422
0.00210937
0.00218111
0.00232091
0.00249555
0.00307523
0.00511293
0.0346599
0.0836348
0.0420708
0.0944658
0.164589
0.114218
0.0553345
0.0050895
0.00275989
0.00228033
0.00219221
0.00211403
0.00208888
0.00207507
0.00206825
0.00206415
0.00206157
0.00205983
0.00205858
0.00205762
0.00205684
0.00205618
0.00205561
0.00205511
0.00205468
0.00205429
0.00205395
0.00205366
0.00205342
0.00205321
0.00205304
0.00205291
0.00205283
0.00205276
0.00200625
0.00200625
0.00200631
0.00200641
0.00200655
0.00200673
0.00200695
0.00200723
0.00200756
0.00200798
0.00200848
0.00200914
0.00201005
0.0020113
0.00201304
0.00201555
0.00201923
0.0020249
0.00203343
0.00204775
0.00207485
0.00215254
0.00230085
0.00248635
0.00307253
0.00498624
0.0295746
0.077874
0.0505539
0.0619732
0.123361
0.135138
0.127418
0.0194799
0.00292291
0.00224137
0.00215492
0.00207727
0.00204821
0.00203358
0.00202685
0.00202278
0.00202028
0.00201855
0.00201733
0.00201641
0.00201569
0.00201506
0.00201451
0.00201403
0.0020136
0.00201323
0.00201289
0.00201261
0.00201236
0.00201216
0.00201199
0.00201186
0.00201178
0.00201171
0.00196686
0.00196686
0.00196694
0.00196705
0.0019672
0.00196741
0.00196766
0.00196797
0.00196835
0.0019688
0.00196938
0.00197017
0.00197121
0.00197263
0.00197459
0.0019774
0.00198147
0.00198768
0.0019969
0.00201213
0.0020409
0.00212186
0.00227379
0.0024625
0.0030382
0.00473566
0.024345
0.0685183
0.0582445
0.0508984
0.0840592
0.118144
0.143454
0.0593468
0.00341561
0.00228088
0.00211997
0.00204056
0.0020087
0.00199359
0.00198699
0.00198288
0.00198048
0.00197883
0.00197765
0.00197675
0.00197605
0.00197547
0.00197495
0.00197448
0.00197407
0.0019737
0.00197338
0.0019731
0.00197285
0.00197265
0.00197248
0.00197236
0.00197228
0.00197221
0.00192893
0.00192893
0.00192901
0.00192914
0.00192931
0.00192953
0.0019298
0.00193014
0.00193054
0.00193105
0.00193172
0.0019326
0.00193376
0.00193532
0.00193748
0.00194053
0.00194494
0.00195159
0.00196141
0.00197725
0.00200745
0.00208931
0.00224093
0.00242759
0.00298593
0.00446574
0.01973
0.0581278
0.0616818
0.0495539
0.0618405
0.0923124
0.143682
0.094758
0.00552405
0.00243155
0.00208691
0.00200397
0.0019705
0.00195512
0.00194859
0.0019445
0.00194212
0.00194053
0.00193941
0.00193855
0.00193787
0.00193731
0.00193683
0.00193639
0.00193599
0.00193563
0.00193532
0.00193504
0.0019348
0.0019346
0.00193444
0.00193432
0.00193424
0.00193417
0.00189237
0.00189237
0.00189246
0.00189259
0.00189277
0.00189301
0.00189329
0.00189364
0.00189409
0.00189466
0.0018954
0.00189635
0.0018976
0.00189928
0.0019016
0.00190486
0.00190955
0.00191654
0.00192688
0.0019431
0.00197439
0.00205548
0.00220414
0.00238547
0.00292316
0.00420829
0.0159423
0.0482199
0.0611787
0.0512718
0.0524007
0.0734484
0.144834
0.114057
0.0104367
0.00266077
0.00205722
0.00196774
0.00193362
0.00191813
0.00191157
0.00190756
0.0019052
0.00190362
0.00190252
0.00190169
0.00190107
0.00190055
0.00190008
0.00189968
0.0018993
0.00189895
0.00189864
0.00189837
0.00189814
0.00189794
0.00189778
0.00189766
0.00189758
0.00189751
0.00185711
0.00185712