/*--------------------------------*- C++ -*----------------------------------*\
  =========                 |
  \\      /  F ield         | OpenFOAM: The Open Source CFD Toolbox
   \\    /   O peration     | Website:  https://openfoam.org
    \\  /    A nd           | Version:  12
     \\/     M anipulation  |
\*---------------------------------------------------------------------------*/
FoamFile
{
    format      ascii;
    class       volScalarField;
    location    "380";
    object      nut;
}
// * * * * * * * * * * * * * * * * * * * * * * * * * * * * * * * * * * * * * //

dimensions      [0 2 -1 0 0 0 0];

internalField   nonuniform List<scalar> 
16227
(
0.000978543
0.000978543
0.000978543
0.000978543
0.000978543
0.000978543
0.000978543
0.000978543
0.000978543
0.000978543
0.000978543
0.000978543
0.000978544
0.000978544
0.000978544
0.000978544
0.000978544
0.000978544
0.000978544
0.000978544
0.000978544
0.000978544
0.000978544
0.000978544
0.000978544
0.000978544
0.000978544
0.000978544
0.000978544
0.000978544
0.000978544
0.000978544
0.000978544
0.000978544
0.000978544
0.000978544
0.000978544
0.000978544
0.000978544
0.000978544
0.000978544
0.000978544
0.000978544
0.000978544
0.000978544
0.000978544
0.000978544
0.000978544
0.000978544
0.000978544
0.000978544
0.000978544
0.000978543
0.000978543
0.000978543
0.000978543
0.000978543
0.000978543
0.000978543
0.000978543
0.000972834
0.000972834
0.000972834
0.000972834
0.000972834
0.000972834
0.000972834
0.000972834
0.000972834
0.000972834
0.000972835
0.000972835
0.000972836
0.000972836
0.000972836
0.000972836
0.000972836
0.000972836
0.000972836
0.000972836
0.000972837
0.000972837
0.000972837
0.000972837
0.000972837
0.000972837
0.000972837
0.000972837
0.000972837
0.000972836
0.000972837
0.000972837
0.000972837
0.000972837
0.000972837
0.000972837
0.000972837
0.000972837
0.000972837
0.000972837
0.000972837
0.000972837
0.000972837
0.000972837
0.000972837
0.000972837
0.000972837
0.000972837
0.000972837
0.000972837
0.000972836
0.000972836
0.000972835
0.000972835
0.000972835
0.000972834
0.000972835
0.000972834
0.000972834
0.000972834
0.000967494
0.000967494
0.000967494
0.000967494
0.000967494
0.000967495
0.000967494
0.000967494
0.000967494
0.000967494
0.000967495
0.000967495
0.000967497
0.000967497
0.000967497
0.000967498
0.000967498
0.000967498
0.000967498
0.000967497
0.000967498
0.000967498
0.000967498
0.000967498
0.000967498
0.000967498
0.000967498
0.000967498
0.000967498
0.000967498
0.000967498
0.000967499
0.000967499
0.000967499
0.000967499
0.000967499
0.000967499
0.000967499
0.000967499
0.000967499
0.000967499
0.000967499
0.000967499
0.000967499
0.000967499
0.000967499
0.000967499
0.000967499
0.000967498
0.000967498
0.000967498
0.000967496
0.000967495
0.000967495
0.000967495
0.000967495
0.000967495
0.000967494
0.000967495
0.000967494
0.000962481
0.000962481
0.000962481
0.000962481
0.000962481
0.000962481
0.000962481
0.000962481
0.000962481
0.000962481
0.000962481
0.000962482
0.000962484
0.000962485
0.000962485
0.000962485
0.000962485
0.000962485
0.000962484
0.000962483
0.000962484
0.000962485
0.000962485
0.000962485
0.000962485
0.000962485
0.000962486
0.000962486
0.000962486
0.000962485
0.000962486
0.000962487
0.000962487
0.000962487
0.000962487
0.000962487
0.000962488
0.000962488
0.000962488
0.000962488
0.000962488
0.000962488
0.000962488
0.000962488
0.000962488
0.000962488
0.000962488
0.000962488
0.000962488
0.000962487
0.000962486
0.000962484
0.000962483
0.000962483
0.000962483
0.000962483
0.000962483
0.000962482
0.000962482
0.000962482
0.000957759
0.000957759
0.000957759
0.000957759
0.000957759
0.000957759
0.00095776
0.000957759
0.000957759
0.000957759
0.000957759
0.000957759
0.000957762
0.000957763
0.000957763
0.000957763
0.000957763
0.000957763
0.00095776
0.00095776
0.000957762
0.000957763
0.000957763
0.000957763
0.000957763
0.000957763
0.000957763
0.000957764
0.000957764
0.000957763
0.000957765
0.000957765
0.000957766
0.000957766
0.000957767
0.000957767
0.000957767
0.000957768
0.000957768
0.000957768
0.000957769
0.000957769
0.000957769
0.000957769
0.000957769
0.000957769
0.000957769
0.000957769
0.000957769
0.000957768
0.000957765
0.000957764
0.000957763
0.000957763
0.000957763
0.000957764
0.000957763
0.000957762
0.000957762
0.000957762
0.000953298
0.000953298
0.000953298
0.000953298
0.000953298
0.000953298
0.000953299
0.000953298
0.000953298
0.000953297
0.000953297
0.000953297
0.000953298
0.000953301
0.000953302
0.000953302
0.000953302
0.0009533
0.000953298
0.000953297
0.0009533
0.000953301
0.000953301
0.000953301
0.000953301
0.000953301
0.000953302
0.000953302
0.000953302
0.000953302
0.000953304
0.000953305
0.000953306
0.000953306
0.000953307
0.000953308
0.000953309
0.000953309
0.00095331
0.00095331
0.000953311
0.000953311
0.000953311
0.000953311
0.000953311
0.000953312
0.000953312
0.000953312
0.000953311
0.00095331
0.000953307
0.000953306
0.000953305
0.000953306
0.000953306
0.000953306
0.000953305
0.000953305
0.000953305
0.000953305
0.000949073
0.000949073
0.000949073
0.000949073
0.000949073
0.000949073
0.000949073
0.000949073
0.000949072
0.000949071
0.000949071
0.00094907
0.000949071
0.000949074
0.000949075
0.000949075
0.000949075
0.000949071
0.000949069
0.00094907
0.000949072
0.000949073
0.000949073
0.000949073
0.000949074
0.000949074
0.000949075
0.000949075
0.000949076
0.000949076
0.000949078
0.000949079
0.00094908
0.000949082
0.000949083
0.000949084
0.000949085
0.000949086
0.000949087
0.000949088
0.000949089
0.000949089
0.00094909
0.00094909
0.000949091
0.000949091
0.000949091
0.000949091
0.00094909
0.000949087
0.000949085
0.000949084
0.000949084
0.000949085
0.000949085
0.000949085
0.000949084
0.000949083
0.000949083
0.000949083
0.000945061
0.000945061
0.000945061
0.000945061
0.00094506
0.00094506
0.00094506
0.00094506
0.000945059
0.000945058
0.000945057
0.000945056
0.000945056
0.000945057
0.00094506
0.000945061
0.00094506
0.000945056
0.000945054
0.000945054
0.000945057
0.000945058
0.000945058
0.000945058
0.000945058
0.000945059
0.00094506
0.000945061
0.000945061
0.000945062
0.000945064
0.000945066
0.000945068
0.00094507
0.000945072
0.000945073
0.000945075
0.000945077
0.000945078
0.000945079
0.000945081
0.000945081
0.000945082
0.000945083
0.000945084
0.000945084
0.000945084
0.000945084
0.000945082
0.000945079
0.000945078
0.000945077
0.000945078
0.000945078
0.000945078
0.000945078
0.000945077
0.000945076
0.000945076
0.000945076
0.000941243
0.000941243
0.000941243
0.000941242
0.000941242
0.000941242
0.000941242
0.000941241
0.00094124
0.000941239
0.000941237
0.000941236
0.000941235
0.000941236
0.00094124
0.00094124
0.000941238
0.000941233
0.000941232
0.000941232
0.000941235
0.000941235
0.000941235
0.000941235
0.000941236
0.000941237
0.000941238
0.000941239
0.00094124
0.000941241
0.000941244
0.000941247
0.000941249
0.000941252
0.000941254
0.000941257
0.000941259
0.000941261
0.000941263
0.000941265
0.000941267
0.000941268
0.00094127
0.00094127
0.000941271
0.000941272
0.000941272
0.000941271
0.000941268
0.000941266
0.000941265
0.000941265
0.000941266
0.000941266
0.000941266
0.000941266
0.000941265
0.000941264
0.000941264
0.000941264
0.000937602
0.000937602
0.000937601
0.000937601
0.000937601
0.0009376
0.0009376
0.000937599
0.000937598
0.000937597
0.000937595
0.000937593
0.000937592
0.000937592
0.000937595
0.000937595
0.00093759
0.000937587
0.000937586
0.000937586
0.000937588
0.000937589
0.000937589
0.000937589
0.000937589
0.00093759
0.000937592
0.000937593
0.000937595
0.000937596
0.0009376
0.000937604
0.000937607
0.00093761
0.000937613
0.000937617
0.00093762
0.000937623
0.000937626
0.000937629
0.000937631
0.000937633
0.000937635
0.000937636
0.000937637
0.000937638
0.000937639
0.000937637
0.000937634
0.000937632
0.000937632
0.000937632
0.000937632
0.000937632
0.000937632
0.000937632
0.000937631
0.000937631
0.000937631
0.000937631
0.000934123
0.000934123
0.000934123
0.000934122
0.000934122
0.000934121
0.00093412
0.000934119
0.000934118
0.000934116
0.000934114
0.000934111
0.000934109
0.000934109
0.000934109
0.000934111
0.000934106
0.000934103
0.000934101
0.000934101
0.000934102
0.000934103
0.000934103
0.000934103
0.000934104
0.000934105
0.000934107
0.000934109
0.000934111
0.000934113
0.000934118
0.000934122
0.000934126
0.000934131
0.000934135
0.000934139
0.000934144
0.000934148
0.000934152
0.000934155
0.000934158
0.000934161
0.000934163
0.000934165
0.000934166
0.000934167
0.000934167
0.000934165
0.000934163
0.000934162
0.000934161
0.000934162
0.000934162
0.000934162
0.000934162
0.000934162
0.000934161
0.000934161
0.000934161
0.00093416
0.000930794
0.000930794
0.000930794
0.000930793
0.000930792
0.000930791
0.00093079
0.000930789
0.000930787
0.000930785
0.000930782
0.000930779
0.000930776
0.000930774
0.000930774
0.000930775
0.00093077
0.000930767
0.000930765
0.000930764
0.000930763
0.000930765
0.000930766
0.000930766
0.000930767
0.000930768
0.00093077
0.000930773
0.000930776
0.000930778
0.000930784
0.000930789
0.000930795
0.0009308
0.000930806
0.000930812
0.000930817
0.000930822
0.000930827
0.000930831
0.000930835
0.000930838
0.000930841
0.000930844
0.000930846
0.000930847
0.000930845
0.000930844
0.000930843
0.000930842
0.000930842
0.000930842
0.000930842
0.000930842
0.000930842
0.000930842
0.000930841
0.000930841
0.000930841
0.000930841
0.000927603
0.000927603
0.000927602
0.000927601
0.0009276
0.000927599
0.000927598
0.000927596
0.000927593
0.000927591
0.000927588
0.000927584
0.000927581
0.000927577
0.000927575
0.000927573
0.000927571
0.000927568
0.000927565
0.000927563
0.000927562
0.000927565
0.000927565
0.000927565
0.000927566
0.000927568
0.00092757
0.000927573
0.000927577
0.00092758
0.000927587
0.000927594
0.000927601
0.000927608
0.000927615
0.000927622
0.000927628
0.000927635
0.000927641
0.000927646
0.000927651
0.000927655
0.000927659
0.000927662
0.000927664
0.000927664
0.000927663
0.000927663
0.000927662
0.000927661
0.000927661
0.000927661
0.000927661
0.000927661
0.000927662
0.000927661
0.000927661
0.00092766
0.00092766
0.00092766
0.000924539
0.000924539
0.000924538
0.000924537
0.000924536
0.000924534
0.000924532
0.00092453
0.000924527
0.000924524
0.000924521
0.000924517
0.000924512
0.000924508
0.000924504
0.000924501
0.000924499
0.000924496
0.000924492
0.00092449
0.000924488
0.00092449
0.000924491
0.000924491
0.000924492
0.000924493
0.000924496
0.0009245
0.000924505
0.000924509
0.000924517
0.000924526
0.000924534
0.000924542
0.000924551
0.000924559
0.000924568
0.000924575
0.000924583
0.000924589
0.000924595
0.000924601
0.000924605
0.000924608
0.00092461
0.00092461
0.00092461
0.00092461
0.000924609
0.000924609
0.000924609
0.000924609
0.000924609
0.000924609
0.000924609
0.000924609
0.000924608
0.000924608
0.000924608
0.000924607
0.000921594
0.000921594
0.000921593
0.000921591
0.00092159
0.000921588
0.000921586
0.000921583
0.00092158
0.000921576
0.000921572
0.000921567
0.000921562
0.000921557
0.000921552
0.000921548
0.000921546
0.000921542
0.000921537
0.000921534
0.000921531
0.000921533
0.000921533
0.000921533
0.000921534
0.000921537
0.00092154
0.000921545
0.00092155
0.000921556
0.000921566
0.000921575
0.000921585
0.000921596
0.000921606
0.000921616
0.000921626
0.000921636
0.000921644
0.000921652
0.000921659
0.000921665
0.00092167
0.000921674
0.000921674
0.000921676
0.000921677
0.000921677
0.000921677
0.000921676
0.000921676
0.000921676
0.000921677
0.000921677
0.000921676
0.000921676
0.000921675
0.000921675
0.000921675
0.000921674
0.000918759
0.000918758
0.000918757
0.000918756
0.000918754
0.000918752
0.000918749
0.000918746
0.000918742
0.000918738
0.000918733
0.000918727
0.000918721
0.000918716
0.00091871
0.000918705
0.000918702
0.000918697
0.000918691
0.000918687
0.000918684
0.000918685
0.000918685
0.000918685
0.000918686
0.000918689
0.000918693
0.000918699
0.000918706
0.000918713
0.000918724
0.000918736
0.000918747
0.00091876
0.000918772
0.000918784
0.000918796
0.000918807
0.000918817
0.000918827
0.000918835
0.000918842
0.000918848
0.000918851
0.000918852
0.000918853
0.000918855
0.000918855
0.000918855
0.000918855
0.000918855
0.000918855
0.000918855
0.000918855
0.000918855
0.000918854
0.000918854
0.000918853
0.000918853
0.000918852
0.000916027
0.000916026
0.000916025
0.000916023
0.000916021
0.000916019
0.000916016
0.000916012
0.000916007
0.000916002
0.000915997
0.00091599
0.000915984
0.000915977
0.00091597
0.000915965
0.00091596
0.000915954
0.000915948
0.000915942
0.000915938
0.000915937
0.000915939
0.00091594
0.000915941
0.000915944
0.000915949
0.000915956
0.000915964
0.000915973
0.000915986
0.000916
0.000916014
0.000916028
0.000916042
0.000916057
0.00091607
0.000916083
0.000916095
0.000916106
0.000916115
0.000916123
0.000916128
0.000916131
0.000916133
0.000916136
0.000916137
0.000916137
0.000916137
0.000916138
0.000916138
0.000916138
0.000916138
0.000916137
0.000916137
0.000916136
0.000916135
0.000916135
0.000916135
0.000916134
0.000913391
0.00091339
0.000913389
0.000913387
0.000913385
0.000913382
0.000913378
0.000913374
0.000913369
0.000913363
0.000913357
0.000913349
0.000913342
0.000913334
0.000913326
0.00091332
0.000913314
0.000913307
0.0009133
0.000913294
0.000913289
0.000913286
0.000913289
0.00091329
0.000913292
0.000913296
0.000913302
0.00091331
0.00091332
0.000913331
0.000913346
0.000913362
0.000913378
0.000913395
0.000913411
0.000913428
0.000913443
0.000913458
0.000913471
0.000913483
0.000913493
0.000913501
0.000913505
0.000913509
0.000913513
0.000913516
0.000913517
0.000913517
0.000913517
0.000913517
0.000913518
0.000913517
0.000913517
0.000913516
0.000913516
0.000913515
0.000913514
0.000913513
0.000913513
0.000913513
0.000910845
0.000910844
0.000910843
0.000910841
0.000910838
0.000910835
0.000910831
0.000910826
0.000910821
0.000910814
0.000910807
0.000910799
0.00091079
0.000910782
0.000910773
0.000910765
0.000910758
0.000910751
0.000910743
0.000910736
0.000910731
0.000910728
0.000910729
0.000910732
0.000910735
0.00091074
0.000910747
0.000910757
0.000910769
0.000910782
0.0009108
0.000910818
0.000910837
0.000910856
0.000910875
0.000910893
0.00091091
0.000910926
0.000910941
0.000910953
0.000910964
0.000910972
0.000910976
0.000910981
0.000910985
0.000910987
0.000910988
0.000910988
0.000910989
0.000910989
0.000910988
0.000910988
0.000910987
0.000910986
0.000910986
0.000910985
0.000910983
0.000910983
0.000910982
0.000910982
0.000908384
0.000908383
0.000908382
0.00090838
0.000908377
0.000908373
0.000908369
0.000908363
0.000908357
0.00090835
0.000908342
0.000908333
0.000908324
0.000908314
0.000908305
0.000908296
0.000908288
0.00090828
0.000908271
0.000908264
0.000908258
0.000908255
0.000908255
0.000908261
0.000908266
0.000908272
0.000908282
0.000908294
0.000908309
0.000908325
0.000908345
0.000908366
0.000908388
0.000908409
0.00090843
0.00090845
0.000908468
0.000908485
0.000908499
0.000908511
0.000908521
0.000908528
0.000908534
0.000908539
0.000908543
0.000908545
0.000908546
0.000908546
0.000908546
0.000908545
0.000908545
0.000908544
0.000908543
0.000908542
0.000908541
0.000908539
0.000908538
0.000908537
0.000908536
0.000908536
0.000906003
0.000906002
0.000906001
0.000905998
0.000905995
0.000905991
0.000905986
0.000905981
0.000905974
0.000905966
0.000905958
0.000905948
0.000905938
0.000905927
0.000905917
0.000905906
0.000905897
0.000905889
0.000905881
0.000905874
0.000905869
0.000905866
0.000905868
0.000905876
0.000905883
0.000905892
0.000905905
0.000905921
0.000905939
0.000905959
0.000905982
0.000906007
0.00090603
0.000906053
0.000906075
0.000906096
0.000906114
0.00090613
0.000906143
0.000906154
0.000906162
0.000906169
0.000906176
0.000906181
0.000906184
0.000906184
0.000906184
0.000906184
0.000906184
0.000906183
0.000906182
0.00090618
0.000906179
0.000906177
0.000906176
0.000906174
0.000906172
0.000906171
0.000906171
0.00090617
0.000903698
0.000903696
0.000903695
0.000903692
0.000903689
0.000903685
0.00090368
0.000903674
0.000903667
0.000903658
0.000903649
0.000903639
0.000903628
0.000903617
0.000903606
0.000903595
0.000903585
0.000903578
0.00090357
0.000903564
0.00090356
0.000903561
0.000903565
0.000903575
0.000903587
0.0009036
0.000903619
0.00090364
0.000903665
0.00090369
0.000903718
0.000903745
0.00090377
0.000903794
0.000903816
0.000903835
0.00090385
0.000903861
0.000903871
0.00090388
0.000903886
0.000903892
0.000903897
0.0009039
0.000903902
0.000903901
0.0009039
0.000903899
0.000903898
0.000903896
0.000903894
0.000903892
0.00090389
0.000903888
0.000903886
0.000903884
0.000903882
0.000903881
0.00090388
0.000903879
0.000901463
0.000901462
0.00090146
0.000901457
0.000901454
0.00090145
0.000901444
0.000901438
0.000901431
0.000901422
0.000901413
0.000901402
0.000901391
0.00090138
0.000901368
0.000901357
0.000901348
0.000901341
0.000901335
0.000901332
0.000901332
0.000901338
0.00090135
0.000901366
0.000901388
0.000901407
0.000901433
0.000901464
0.000901496
0.000901527
0.00090156
0.000901589
0.000901615
0.000901638
0.000901658
0.000901675
0.000901678
0.00090168
0.000901681
0.000901684
0.000901688
0.000901691
0.000901693
0.000901693
0.000901692
0.000901691
0.000901689
0.000901687
0.000901684
0.000901681
0.000901678
0.000901675
0.000901673
0.00090167
0.000901667
0.000901665
0.000901663
0.000901661
0.00090166
0.000901659
0.000899296
0.000899295
0.000899293
0.00089929
0.000899287
0.000899282
0.000899277
0.000899271
0.000899263
0.000899255
0.000899245
0.000899235
0.000899223
0.000899212
0.000899201
0.00089919
0.000899182
0.000899176
0.000899175
0.000899177
0.000899186
0.000899203
0.000899231
0.000899265
0.000900287
0.000900317
0.000900349
0.000900386
0.000900425
0.000900461
0.000900496
0.000900525
0.000900549
0.000900568
0.000900585
0.000900599
0.000899625
0.000899589
0.000899576
0.00089957
0.000899566
0.000899564
0.000899561
0.000899557
0.000899553
0.00089955
0.000899546
0.000899542
0.000899538
0.000899534
0.00089953
0.000899526
0.000899522
0.000899519
0.000899516
0.000899513
0.000899511
0.000899509
0.000899507
0.000899506
0.000897193
0.000897192
0.00089719
0.000897187
0.000897184
0.000897179
0.000897174
0.000897168
0.00089716
0.000897152
0.000897143
0.000897132
0.000897122
0.000897112
0.000897102
0.000897093
0.000897087
0.000897085
0.000897089
0.000897102
0.000897125
0.000897167
0.000897219
0.000898215
0.000898183
0.000898235
0.000898284
0.000898342
0.000898401
0.000898451
0.000898492
0.000898519
0.000898534
0.000898543
0.000898548
0.000898538
0.000898591
0.000897615
0.000897559
0.000897535
0.00089752
0.000897509
0.000897499
0.00089749
0.000897482
0.000897475
0.000897469
0.000897463
0.000897457
0.000897451
0.000897445
0.00089744
0.000897436
0.000897431
0.000897428
0.000897424
0.000897421
0.000897419
0.000897418
0.000897417
0.000895151
0.000895149
0.000895148
0.000895145
0.000895142
0.000895137
0.000895132
0.000895126
0.000895119
0.000895111
0.000895103
0.000895094
0.000895084
0.000895076
0.000895068
0.000895063
0.000895062
0.000895067
0.000895082
0.00089511
0.000895156
0.00089524
0.000895306
0.000896208
0.000896245
0.000896767
0.00089684
0.00089693
0.000897015
0.000897076
0.000897112
0.000897122
0.000897116
0.000897106
0.0008971
0.000896643
0.000896618
0.000895734
0.000895631
0.00089558
0.000895548
0.000895523
0.000895503
0.000895487
0.000895474
0.000895463
0.000895453
0.000895444
0.000895436
0.000895428
0.000895421
0.000895415
0.000895409
0.000895404
0.000895399
0.000895395
0.000895392
0.000895389
0.000895388
0.000895386
0.000893166
0.000893165
0.000893163
0.000893161
0.000893158
0.000893154
0.000893149
0.000893144
0.000893137
0.00089313
0.000893123
0.000893115
0.000893108
0.000893102
0.000893099
0.000893099
0.000893106
0.000893122
0.000893152
0.000893204
0.000893286
0.000893431
0.000893512
0.000894326
0.000894535
0.000894898
0.000895104
0.000895289
0.000895435
0.000895514
0.000895514
0.000895455
0.000895375
0.000895301
0.000895256
0.000894934
0.000894766
0.000893959
0.000893799
0.000893706
0.000893647
0.000893604
0.000893571
0.000893546
0.000893526
0.00089351
0.000893496
0.000893483
0.000893472
0.000893463
0.000893454
0.000893446
0.000893439
0.000893433
0.000893427
0.000893423
0.000893419
0.000893416
0.000893414
0.000893413
0.000891236
0.000891235
0.000891233
0.000891231
0.000891229
0.000891225
0.000891221
0.000891217
0.000891212
0.000891206
0.000891201
0.000891195
0.000891192
0.00089119
0.000891193
0.000891201
0.00089122
0.000891252
0.000891307
0.000891393
0.000891528
0.000891755
0.000891856
0.000892617
0.000893088
0.000893146
0.000893707
0.000894135
0.000894475
0.00089465
0.000894598
0.000894369
0.000894076
0.00089381
0.000893628
0.00089349
0.00089305
0.000892297
0.000892072
0.000891914
0.000891819
0.000891751
0.000891702
0.000891665
0.000891636
0.000891613
0.000891594
0.000891577
0.000891563
0.000891551
0.00089154
0.000891531
0.000891523
0.000891515
0.000891509
0.000891504
0.0008915
0.000891497
0.000891494
0.000891493
0.000889359
0.000889357
0.000889356
0.000889354
0.000889352
0.00088935
0.000889347
0.000889344
0.00088934
0.000889337
0.000889333
0.000889332
0.000889332
0.000889337
0.000889348
0.000889369
0.000889403
0.00088946
0.00088955
0.000889687
0.000889902
0.000890231
0.000890369
0.000891146
0.000891985
0.00089165
0.000893007
0.000894026
0.000894962
0.000895524
0.0008954
0.000894665
0.00089372
0.000892883
0.000892304
0.000892424
0.00089151
0.000890753
0.000890456
0.000890206
0.000890064
0.000889963
0.000889892
0.00088984
0.0008898
0.000889769
0.000889744
0.000889723
0.000889706
0.000889691
0.000889678
0.000889667
0.000889657
0.000889649
0.000889642
0.000889636
0.000889631
0.000889628
0.000889625
0.000889624
0.000887531
0.000887529
0.000887528
0.000887527
0.000887526
0.000887524
0.000887523
0.000887521
0.00088752
0.000887519
0.000887519
0.000887522
0.000887529
0.000887542
0.000887564
0.000887601
0.000887658
0.000887748
0.000887886
0.000888097
0.000888431
0.000888882
0.000889107
0.00089003
0.000891271
0.000890768
0.000893812
0.000896368
0.000899364
0.000901702
0.000901611
0.000899031
0.000895788
0.000893181
0.000891511
0.000891811
0.000890217
0.000889324
0.000888962
0.00088859
0.000888382
0.000888237
0.000888138
0.000888067
0.000888015
0.000887975
0.000887943
0.000887917
0.000887896
0.000887879
0.000887864
0.000887851
0.00088784
0.000887831
0.000887823
0.000887816
0.000887811
0.000887807
0.000887805
0.000887803
0.00088575
0.000885749
0.000885748
0.000885748
0.000885747
0.000885747
0.000885747
0.000885747
0.000885748
0.000885751
0.000885756
0.000885765
0.00088578
0.000885803
0.000885841
0.000885898
0.000885986
0.00088612
0.000886324
0.000886635
0.000887136
0.000887738
0.000888173
0.000889463
0.000891022
0.00089139
0.000897762
0.000904845
0.000916517
0.000929195
0.000930367
0.000918373
0.000905062
0.00089644
0.000891824
0.000891597
0.000889272
0.000887997
0.00088759
0.000887065
0.00088677
0.00088657
0.000886437
0.000886344
0.000886277
0.000886227
0.000886188
0.000886158
0.000886133
0.000886112
0.000886095
0.000886081
0.000886068
0.000886058
0.00088605
0.000886043
0.000886037
0.000886032
0.00088603
0.000886027
0.000884014
0.000884013
0.000884013
0.000884013
0.000884014
0.000884015
0.000884017
0.00088402
0.000884024
0.000884031
0.000884042
0.000884058
0.000884082
0.000884119
0.000884175
0.000884259
0.000884385
0.000884577
0.000884869
0.000885316
0.000886035
0.000886843
0.000887747
0.000889709
0.000891574
0.000894939
0.000907379
0.000928074
0.000455342
0.000278537
0.000275784
0.000421343
0.00092114
0.000907241
0.00089458
0.000891552
0.000888799
0.000886749
0.000886333
0.000885627
0.000885222
0.000884956
0.000884784
0.000884667
0.000884583
0.000884523
0.000884477
0.000884441
0.000884413
0.000884389
0.00088437
0.000884354
0.00088434
0.000884329
0.00088432
0.000884312
0.000884306
0.000884301
0.000884298
0.000884296
0.000882321
0.00088232
0.000882321
0.000882322
0.000882324
0.000882327
0.000882331
0.000882336
0.000882345
0.000882356
0.000882373
0.000882398
0.000882435
0.000882488
0.000882567
0.000882684
0.000882858
0.000883123
0.000883528
0.000884151
0.000885145
0.000886279
0.000888089
0.000891038
0.000893758
0.000902786
0.000924185
0.000675236
0.000235304
0.000104439
0.000109514
0.000176476
0.000412971
0.000935274
0.000902239
0.000891382
0.000888922
0.000885552
0.000885173
0.000884266
0.00088373
0.000883389
0.000883173
0.00088303
0.00088293
0.000882859
0.000882805
0.000882765
0.000882733
0.000882707
0.000882685
0.000882668
0.000882653
0.000882641
0.000882631
0.000882623
0.000882616
0.000882612
0.000882609
0.000882606
0.000880668
0.000880667
0.000880669
0.000880671
0.000880674
0.000880679
0.000880686
0.000880695
0.000880707
0.000880725
0.000880749
0.000880785
0.000880835
0.000880907
0.000881014
0.00088117
0.000881403
0.000881758
0.000882302
0.000883149
0.000884487
0.000886187
0.000889548
0.00089377
0.000898934
0.000915538
0.000943504
0.000925044
0.000160337
0.000157359
0.000300188
0.000788467
0.000917383
0.000890976
0.000889739
0.000884398
0.000884086
0.000882967
0.000882282
0.000881861
0.0008816
0.00088143
0.000881313
0.000881231
0.000881171
0.000881126
0.00088109
0.000881062
0.000881039
0.000881021
0.000881005
0.000880992
0.000880982
0.000880973
0.000880967
0.000880962
0.000880958
0.000880956
0.000879054
0.000879054
0.000879056
0.000879059
0.000879064
0.000879071
0.00087908
0.000879093
0.00087911
0.000879134
0.000879167
0.000879214
0.00087928
0.000879375
0.000879512
0.000879715
0.000880018
0.000880479
0.000881192
0.000882311
0.00088409
0.000886766
0.000892543
0.000898422
0.000909185
0.000934898
0.000965323
0.000807336
0.000760671
0.000712378
0.000332495
0.000330723
0.000737826
0.000939717
0.00089094
0.000891292
0.000883351
0.000883047
0.000881713
0.000880868
0.000880367
0.00088006
0.000879863
0.000879731
0.000879639
0.000879573
0.000879524
0.000879485
0.000879455
0.000879431
0.000879411
0.000879395
0.000879382
0.000879371
0.000879362
0.000879355
0.00087935
0.000879346
0.000879343
0.000877477
0.000877477
0.00087748
0.000877484
0.000877491
0.0008775
0.000877512
0.000877529
0.000877552
0.000877582
0.000877625
0.000877684
0.000877768
0.000877887
0.00087806
0.000878316
0.000878697
0.000879282
0.000880191
0.000881632
0.000883985
0.000888228
0.000897474
0.000905772
0.000927754
0.000965375
0.00101188
0.0018773
0.0103068
0.0145743
0.00527377
0.000447738
0.000557703
0.000946401
0.000965026
0.000893295
0.000893357
0.000882538
0.000882035
0.000880489
0.000879478
0.0008789
0.000878549
0.000878327
0.000878181
0.00087808
0.000878009
0.000877956
0.000877915
0.000877884
0.000877858
0.000877838
0.000877821
0.000877807
0.000877796
0.000877786
0.000877779
0.000877774
0.00087777
0.000877767
0.000875935
0.000875935
0.000875939
0.000875944
0.000875953
0.000875964
0.00087598
0.000876001
0.000876029
0.000876067
0.000876119
0.000876192
0.000876295
0.000876441
0.000876653
0.000876966
0.000877435
0.000878157
0.000879285
0.000881096
0.000884181
0.000890672
0.000904473
0.000916652
0.000957614
0.00101235
0.00150994
0.00679869
0.00930191
0.00685095
0.00296526
0.000644559
0.00103135
0.0011335
0.000985532
0.000899404
0.000895505
0.000882068
0.000881048
0.000879272
0.000878102
0.000877454
0.000877062
0.000876818
0.000876659
0.000876552
0.000876476
0.00087642
0.000876378
0.000876345
0.000876319
0.000876298
0.000876281
0.000876266
0.000876255
0.000876245
0.000876238
0.000876233
0.000876229
0.000876226
0.000874426
0.000874426
0.000874431
0.000874438
0.000874448
0.000874462
0.00087448
0.000874506
0.00087454
0.000874586
0.000874649
0.000874736
0.000874858
0.000875033
0.000875286
0.00087566
0.000876222
0.000877091
0.000878452
0.000880669
0.000884621
0.000893911
0.000912987
0.000930978
0.000998363
0.00111522
0.0033344
0.0089078
0.00427237
0.00256888
0.00139521
0.00102582
0.00123173
0.0011783
0.000995483
0.000908465
0.000897306
0.000881981
0.000880094
0.000878042
0.000876735
0.000876025
0.000875598
0.000875335
0.000875166
0.000875052
0.000874973
0.000874916
0.000874873
0.000874839
0.000874813
0.000874791
0.000874774
0.000874759
0.000874747
0.000874738
0.00087473
0.000874725
0.000874721
0.000874718
0.000872949
0.00087295
0.000872955
0.000872963
0.000872975
0.000872991
0.000873013
0.000873043
0.000873083
0.000873136
0.00087321
0.000873312
0.000873455
0.000873659
0.000873954
0.000874391
0.000875048
0.00087607
0.000877665
0.000880299
0.000885162
0.000897448
0.000921804
0.000946992
0.00104297
0.00130325
0.00505758
0.00760112
0.00252569
0.00217107
0.00188526
0.00155648
0.00145813
0.00121533
0.000999789
0.000917459
0.000898603
0.000882213
0.000879167
0.000876789
0.000875376
0.000874611
0.000874154
0.000873876
0.000873699
0.000873581
0.0008735
0.000873441
0.000873398
0.000873364
0.000873337
0.000873315
0.000873298
0.000873283
0.000873271
0.000873262
0.000873254
0.000873249
0.000873245
0.000873242
0.000871502
0.000871503
0.000871509
0.000871519
0.000871532
0.000871551
0.000871576
0.00087161
0.000871656
0.000871717
0.000871802
0.000871918
0.000872081
0.000872314
0.000872651
0.000873152
0.000873906
0.000875077
0.000876894
0.000879928
0.000885625
0.000900691
0.000929507
0.000961633
0.00107839
0.00145132
0.0057503
0.00862876
0.00360631
0.00977484
0.00654051
0.00345891
0.00191011
0.00127747
0.00100747
0.000922179
0.000899613
0.00088261
0.000878249
0.000875511
0.000874026
0.00087321
0.000872731
0.00087244
0.000872258
0.000872137
0.000872055
0.000871996
0.000871952
0.000871918
0.000871891
0.00087187
0.000871852
0.000871838
0.000871826
0.000871816
0.000871809
0.000871803
0.0008718
0.000871796
0.000870085
0.000870086
0.000870093
0.000870104
0.000870119
0.00087014
0.000870168
0.000870206
0.000870257
0.000870326
0.000870421
0.000870551
0.000870734
0.000870996
0.000871376
0.000871939
0.000872784
0.000874097
0.000876114
0.000879505
0.00088587
0.000903195
0.000935349
0.000972718
0.00109838
0.00148985
0.00577389
0.0110602
0.00432312
0.00945668
0.0162562
0.0124562
0.00561652
0.0014763
0.0010301
0.000921542
0.000900454
0.000882998
0.000877318
0.000874219
0.00087269
0.000871827
0.000871331
0.000871029
0.000870842
0.00087072
0.000870637
0.000870578
0.000870535
0.000870501
0.000870475
0.000870453
0.000870436
0.000870422
0.00087041
0.0008704
0.000870393
0.000870387
0.000870384
0.00087038
0.000868696
0.000868697
0.000868705
0.000868716
0.000868733
0.000868756
0.000868787
0.000868829
0.000868886
0.000868962
0.000869065
0.000869209