/*--------------------------------*- C++ -*----------------------------------*\
  =========                 |
  \\      /  F ield         | OpenFOAM: The Open Source CFD Toolbox
   \\    /   O peration     | Website:  https://openfoam.org
    \\  /    A nd           | Version:  12
     \\/     M anipulation  |
\*---------------------------------------------------------------------------*/
FoamFile
{
    format      ascii;
    class       volScalarField;
    location    "380";
    object      omega;
}
// * * * * * * * * * * * * * * * * * * * * * * * * * * * * * * * * * * * * * //

dimensions      [0 0 -1 0 0 0 0];

internalField   nonuniform List<scalar> 
16227
(
9.34702
9.34704
9.34704
9.34707
9.34706
9.3471
9.34709
9.34708
9.34707
9.34709
9.34713
9.34715
9.3472
9.3472
9.3472
9.3472
9.3472
9.3472
9.3472
9.3472
9.3472
9.3472
9.3472
9.3472
9.3472
9.3472
9.3472
9.34722
9.34722
9.3472
9.34721
9.3472
9.3472
9.3472
9.34721
9.3472
9.3472
9.3472
9.3472
9.3472
9.3472
9.3472
9.3472
9.3472
9.3472
9.3472
9.3472
9.34719
9.34717
9.34717
9.34717
9.34716
9.3471
9.3471
9.34706
9.34705
9.34707
9.34705
9.34703
9.34702
8.71806
8.71808
8.71807
8.7181
8.71811
8.71814
8.71813
8.7181
8.71812
8.71813
8.71818
8.7182
8.71834
8.71839
8.71841
8.7184
8.7184
8.7184
8.7184
8.7184
8.71842
8.71843
8.71843
8.71843
8.71843
8.71843
8.71843
8.71842
8.71841
8.71836
8.71841
8.71843
8.71843
8.71843
8.71843
8.71842
8.7184
8.7184
8.71841
8.71841
8.71841
8.71841
8.71841
8.71839
8.71839
8.71838
8.71838
8.71838
8.71838
8.71837
8.71834
8.71829
8.71818
8.71816
8.71813
8.7181
8.71814
8.71806
8.71808
8.71805
8.16619
8.16621
8.16622
8.16623
8.16623
8.16631
8.16627
8.16625
8.16626
8.16627
8.16631
8.16633
8.16657
8.16663
8.16664
8.16665
8.16665
8.16664
8.16666
8.16661
8.16665
8.16666
8.16665
8.16665
8.16665
8.16665
8.16665
8.16666
8.16665
8.16658
8.16664
8.16666
8.16666
8.16667
8.16667
8.16667
8.16668
8.16667
8.16666
8.16666
8.16666
8.16667
8.16666
8.16665
8.16665
8.16665
8.16664
8.16664
8.16663
8.16661
8.16657
8.16638
8.16631
8.16629
8.16627
8.16627
8.1663
8.16621
8.16622
8.1662
7.6783
7.67831
7.67832
7.67833
7.67833
7.6784
7.6784
7.67836
7.67837
7.67836
7.6784
7.67846
7.67871
7.67878
7.67879
7.67881
7.67881
7.67882
7.67876
7.67863
7.67875
7.67878
7.67878
7.67878
7.67879
7.67879
7.67879
7.67879
7.67878
7.6787
7.67878
7.67881
7.67881
7.67882
7.67883
7.67884
7.67885
7.67885
7.67886
7.67886
7.67887
7.67886
7.67886
7.67887
7.67886
7.67886
7.67886
7.67885
7.67886
7.67883
7.67871
7.67852
7.67842
7.67844
7.67844
7.67845
7.67843
7.67835
7.67836
7.67834
7.24403
7.24404
7.24405
7.24406
7.24406
7.24412
7.24414
7.24408
7.24408
7.24408
7.24411
7.24417
7.2444
7.24452
7.24454
7.24453
7.24453
7.24451
7.2443
7.24422
7.24441
7.24448
7.24448
7.24447
7.24447
7.24447
7.24447
7.24448
7.24447
7.24439
7.24449
7.24453
7.24455
7.24456
7.24458
7.2446
7.24462
7.24464
7.24466
7.24467
7.24469
7.2447
7.2447
7.2447
7.2447
7.24471
7.24471
7.24471
7.24471
7.24463
7.24439
7.24428
7.2442
7.24423
7.24424
7.24429
7.24423
7.24415
7.24415
7.24414
6.85514
6.85516
6.85515
6.85516
6.85516
6.8552
6.85524
6.85518
6.85515
6.85514
6.85514
6.85517
6.85527
6.85554
6.85559
6.8556
6.85559
6.85548
6.85525
6.85521
6.85542
6.85548
6.85547
6.85546
6.85546
6.85547
6.85548
6.85548
6.85547
6.8554
6.85551
6.85556
6.8556
6.85564
6.85568
6.85571
6.85575
6.85579
6.85581
6.85584
6.85587
6.85589
6.85591
6.85593
6.85594
6.85594
6.85595
6.85595
6.85595
6.85581
6.85557
6.85546
6.85542
6.85546
6.8555
6.85549
6.85543
6.85537
6.85537
6.85535
6.50497
6.50498
6.50497
6.50498
6.50497
6.50501
6.50504
6.50501
6.50496
6.50493
6.5049
6.50489
6.50498
6.50522
6.50534
6.50534
6.5053
6.505
6.50487
6.50487
6.50508
6.50513
6.50512
6.50511
6.50511
6.50511
6.50512
6.50514
6.50514
6.50507
6.50521
6.50528
6.50533
6.50539
6.50546
6.50551
6.50557
6.50563
6.50568
6.50574
6.50578
6.50582
6.50585
6.50588
6.50591
6.50592
6.50593
6.50594
6.50587
6.50561
6.50547
6.50539
6.50539
6.50545
6.50546
6.50545
6.5054
6.50534
6.50535
6.50533
6.1881
6.1881
6.18809
6.1881
6.18808
6.1881
6.18812
6.1881
6.18804
6.18798
6.18794
6.18788
6.1879
6.18801
6.18827
6.18833
6.18825
6.1879
6.18779
6.18777
6.18799
6.18803
6.188
6.18799
6.18797
6.18798
6.188
6.18802
6.18803
6.18798
6.18814
6.18824
6.18833
6.18841
6.1885
6.18859
6.18867
6.18876
6.18884
6.18892
6.18899
6.18904
6.1891
6.18914
6.18918
6.1892
6.18923
6.18923
6.1891
6.18885
6.18872
6.18868
6.18872
6.18875
6.18875
6.18874
6.18869
6.18864
6.18865
6.18863
5.90005
5.90004
5.90004
5.90003
5.90002
5.90002
5.90003
5.89999
5.89995
5.89987
5.8998
5.89971
5.89969
5.89975
5.90005
5.90011
5.89994
5.8996
5.89949
5.89945
5.89966
5.89969
5.89965
5.89962
5.89961
5.89962
5.89963
5.89967
5.8997
5.89966
5.89984
5.89997
5.90009
5.90021
5.90033
5.90046
5.90058
5.90071
5.90082
5.90092
5.90102
5.90111
5.90118
5.90124
5.90129
5.90134
5.90136
5.9013
5.90104
5.90091
5.90083
5.90086
5.90087
5.9009
5.9009
5.90089
5.90085
5.9008
5.9008
5.9008
5.63711
5.63711
5.6371
5.63709
5.63706
5.63705
5.63705
5.637
5.63694
5.63688
5.63677
5.63665
5.63661
5.63666
5.63688
5.63693
5.63658
5.63635
5.63625
5.63621
5.63639
5.6364
5.63635
5.63631
5.6363
5.6363
5.63633
5.63637
5.63642
5.6364
5.63662
5.63678
5.63693
5.63709
5.63726
5.63742
5.63759
5.63775
5.63791
5.63804
5.63817
5.63828
5.63839
5.63848
5.63855
5.63861
5.63864
5.63855
5.63828
5.63817
5.63815
5.63816
5.63817
5.6382
5.63819
5.63819
5.63815
5.63811
5.63811
5.6381
5.39619
5.39619
5.39617
5.39615
5.39612
5.3961
5.39608
5.39601
5.39594
5.39586
5.39576
5.39559
5.39548
5.39546
5.39551
5.39566
5.39532
5.39511
5.395
5.39493
5.39503
5.39506
5.39501
5.39496
5.39493
5.39493
5.39496
5.39502
5.39509
5.3951
5.39534
5.39555
5.39575
5.39595
5.39617
5.39639
5.3966
5.3968
5.397
5.39719
5.39735
5.3975
5.39763
5.39774
5.39783
5.39789
5.39786
5.39773
5.39756
5.39748
5.39748
5.39749
5.3975
5.39754
5.39754
5.39753
5.3975
5.39745
5.39746
5.39745
5.17467
5.17466
5.17464
5.17462
5.17457
5.17455
5.1745
5.17443
5.17433
5.17422
5.1741
5.17394
5.17377
5.17368
5.17366
5.17375
5.17347
5.17325
5.17308
5.17297
5.17291
5.17302
5.17299
5.17293
5.17289
5.17289
5.17293
5.173
5.17309
5.17313
5.17342
5.17367
5.17392
5.17418
5.17444
5.17472
5.17498
5.17525
5.17549
5.17571
5.17593
5.17611
5.17627
5.17641
5.17651
5.17656
5.17644
5.17638
5.1763
5.17623
5.17623
5.17625
5.17627
5.1763
5.17629
5.17629
5.17626
5.17622
5.17622
5.17621
4.97032
4.97031
4.97029
4.97025
4.9702
4.97016
4.97009
4.97001
4.96989
4.96976
4.96962
4.96943
4.96924
4.96905
4.96892
4.96883
4.9687
4.96851
4.96831
4.96815
4.96802
4.96814
4.96809
4.96801
4.96796
4.96796
4.968
4.96809
4.96821
4.96828
4.96861
4.96891
4.96921
4.96954
4.96987
4.97021
4.97053
4.97085
4.97116
4.97143
4.97169
4.97192
4.97211
4.97228
4.97239
4.97241
4.97231
4.97231
4.97222
4.97217
4.97218
4.97221
4.97223
4.97224
4.97225
4.97224
4.97221
4.97218
4.97218
4.97217
4.78125
4.78125
4.78121
4.78117
4.78111
4.78105
4.78097
4.78086
4.78072
4.78057
4.7804
4.78018
4.77997
4.77975
4.77951
4.77936
4.77924
4.77903
4.77879
4.77858
4.7784
4.77849
4.77841
4.7783
4.77824
4.77823
4.77828
4.77839
4.77853
4.77864
4.77902
4.77938
4.77975
4.78014
4.78054
4.78095
4.78136
4.78174
4.7821
4.78244
4.78274
4.78301
4.78324
4.78342
4.78349
4.78348
4.7835
4.78351
4.78345
4.78343
4.78344
4.78346
4.78348
4.78349
4.7835
4.7835
4.78346
4.78343
4.78343
4.78342
4.60583
4.60583
4.60579
4.60574
4.60566
4.60559
4.6055
4.60537
4.60521
4.60503
4.60483
4.60458
4.60433
4.60407
4.60381
4.6036
4.60344
4.60317
4.60287
4.60262
4.60239
4.60243
4.60232
4.60218
4.60209
4.60208
4.60213
4.60225
4.60242
4.60258
4.60302
4.60344
4.60389
4.60436
4.60484
4.60533
4.60581
4.60628
4.6067
4.6071
4.60745
4.60777
4.60803
4.6082
4.6082
4.60828
4.60834
4.60837
4.60835
4.60833
4.60836
4.60838
4.6084
4.60841
4.60841
4.60841
4.60838
4.60835
4.60834
4.60833
4.44267
4.44265
4.44261
4.44255
4.44246
4.44238
4.44227
4.44211
4.44194
4.44173
4.44149
4.44122
4.44093
4.44062
4.44032
4.44007
4.43984
4.43952
4.43916
4.43885
4.43858
4.4385
4.43839
4.43822
4.43811
4.43809
4.43814
4.43828
4.43849
4.4387
4.43919
4.43969
4.44022
4.44078
4.44135
4.44194
4.4425
4.44305
4.44355
4.44402
4.44443
4.44479
4.44508
4.44524
4.44528
4.44538
4.44546
4.44547
4.44547
4.44549
4.44553
4.44555
4.44557
4.44559
4.44559
4.44557
4.44554
4.44551
4.44551
4.44549
4.29052
4.2905
4.29045
4.29038
4.29029
4.29019
4.29006
4.28989
4.28969
4.28946
4.28919
4.28887
4.28855
4.2882
4.28784
4.28753
4.28725
4.28686
4.28645
4.28605
4.2857
4.28544
4.28538
4.28522
4.28508
4.28503
4.28508
4.28525
4.28549
4.28576
4.28631
4.2869
4.28753
4.28819
4.28887
4.28955
4.29022
4.29085
4.29144
4.29197
4.29245
4.29284
4.29309
4.29325
4.29339
4.29354
4.29364
4.29365
4.29366
4.29371
4.29374
4.29376
4.29377
4.29379
4.29378
4.29377
4.29374
4.2937
4.2937
4.29369
4.14833
4.1483
4.14826
4.14818
4.14808
4.14796
4.14781
4.14762
4.1474
4.14714
4.14684
4.14649
4.14612
4.14572
4.14531
4.14494
4.14459
4.14415
4.14366
4.14318
4.14275
4.14237
4.14228
4.14209
4.14192
4.14185
4.1419
4.14207
4.14235
4.14268
4.14332
4.14401
4.14474
4.14552
4.14632
4.14712
4.1479
4.14863
4.14931
4.14991
4.15044
4.15084
4.15104
4.15128
4.15149
4.15168
4.15179
4.15181
4.15184
4.15189
4.15192
4.15194
4.15194
4.15195
4.15195
4.15192
4.15189
4.15186
4.15185
4.15184
4.01517
4.01514
4.01509
4.01501
4.01489
4.01476
4.0146
4.01439
4.01414
4.01385
4.01352
4.01313
4.01272
4.01227
4.0118
4.01136
4.01094
4.01042
4.00987
4.0093
4.00879
4.00834
4.00812
4.0079
4.00769
4.00759
4.00763
4.00782
4.00815
4.00855
4.00928
4.01007
4.01093
4.01184
4.01278
4.01371
4.01461
4.01545
4.01621
4.01688
4.01747
4.01789
4.01814
4.01842
4.01868
4.01886
4.01894
4.01899
4.01905
4.0191
4.01913
4.01914
4.01914
4.01915
4.01913
4.01911
4.01906
4.01903
4.01902
4.01901
3.89022
3.89019
3.89013
3.89004
3.88991
3.88978
3.8896
3.88936
3.88909
3.88878
3.88841
3.88799
3.88753
3.88703
3.88651
3.88598
3.88547
3.88489
3.88425
3.88361
3.88297
3.88242
3.88199
3.88179
3.88157
3.88143
3.88146
3.88167
3.88205
3.88253
3.88336
3.88429
3.88529
3.88635
3.88744
3.88852
3.88955
3.8905
3.89133
3.89205
3.89265
3.8931
3.89347
3.89381
3.89409
3.89427
3.89435
3.89442
3.89448
3.89453
3.89455
3.89456
3.89455
3.89454
3.89452
3.89449
3.89445
3.89441
3.8944
3.89438
3.77275
3.77272
3.77266
3.77256
3.77243
3.77228
3.77208
3.77183
3.77154
3.77119
3.7708
3.77034
3.76984
3.76928
3.76868
3.76805
3.76745
3.76681
3.7661
3.76536
3.76463
3.76394
3.76338
3.76313
3.76283
3.76265
3.76266
3.76289
3.76331
3.76388
3.76483
3.76591
3.76709
3.76833
3.7696
3.77084
3.77201
3.77306
3.77398
3.77477
3.77536
3.77588
3.77635
3.77673
3.777
3.77715
3.77725
3.77734
3.77741
3.77745
3.77746
3.77745
3.77744
3.77741
3.77738
3.77735
3.7773
3.77726
3.77724
3.77722
3.66213
3.66209
3.66203
3.66193
3.66179
3.66162
3.66141
3.66115
3.66084
3.66047
3.66004
3.65955
3.659
3.65839
3.65773
3.65702
3.65631
3.6556
3.65479
3.65393
3.65308
3.65229
3.6516
3.6512
3.65084
3.6506
3.65058
3.65082
3.65131
3.65199
3.65308
3.65433
3.65571
3.65716
3.65863
3.66005
3.66135
3.6625
3.66353
3.6644
3.66505
3.66563
3.66613
3.66652
3.66679
3.66693
3.66703
3.66713
3.66718
3.66721
3.66721
3.66718
3.66715
3.66712
3.66708
3.66703
3.66698
3.66694
3.66691
3.66689
3.55777
3.55774
3.55767
3.55756
3.55742
3.55725
3.55703
3.55675
3.55642
3.55603
3.55557
3.55504
3.55446
3.5538
3.55307
3.55228
3.55148
3.55066
3.54975
3.54878
3.5478
3.54686
3.54604
3.54542
3.54509
3.54476
3.54471
3.54496
3.54552
3.5463
3.54756
3.54904
3.55064
3.55234
3.55404
3.55568
3.55704
3.5583
3.55936
3.5603
3.56107
3.56172
3.56224
3.5626
3.56283
3.56299
3.56311
3.56319
3.56323
3.56324
3.56322
3.56318
3.56313
3.56309
3.56303
3.56298
3.56292
3.56287
3.56284
3.56282
3.45919
3.45915
3.45908
3.45897
3.45882
3.45864
3.45841
3.45812
3.45778
3.45737
3.45689
3.45633
3.4557
3.45499
3.45421
3.45334
3.45241
3.45146
3.45047
3.4494
3.44828
3.4472
3.44624
3.44556
3.49346
3.49315
3.49306
3.49331
3.4939
3.49475
3.49609
3.49769
3.49944
3.50128
3.50313
3.5049
3.45946
3.45999
3.46113
3.46214
3.46298
3.46365
3.46415
3.46446
3.46468
3.46484
3.46496
3.46502
3.46504
3.46502
3.46498
3.46493
3.46486
3.4648
3.46473
3.46466
3.4646
3.46454
3.46451
3.46449
3.36591
3.36587
3.3658
3.36569
3.36553
3.36535
3.36512
3.36482
3.36446
3.36403
3.36353
3.36295
3.36229
3.36154
3.36069
3.35975
3.35872
3.35763
3.35651
3.35535
3.35411
3.35289
3.35197
3.39675
3.39445
3.39421
3.39405
3.39427
3.39492
3.3959
3.39744
3.39931
3.40138
3.40355
3.40574
3.40771
3.41156
3.36798
3.36846
3.36947
3.37031
3.37096
3.37142
3.3717
3.3719
3.37205
3.37213
3.37216
3.37215
3.37211
3.37204
3.37196
3.37188
3.3718
3.37171
3.37164
3.37156
3.3715
3.37146
3.37144
3.27753
3.27748
3.27741
3.2773
3.27715
3.27696
3.27673
3.27642
3.27606
3.27562
3.27511
3.2745
3.27381
3.27302
3.27213
3.27113
3.27001
3.26881
3.26757
3.26628
3.26491
3.26356
3.2626
3.30314
3.30101
3.32326
3.32308
3.3233
3.32398
3.32504
3.32673
3.3288
3.33112
3.33359
3.33608
3.31663
3.31989
3.281
3.2809
3.28186
3.28266
3.28324
3.28362
3.28387
3.28405
3.28417
3.28421
3.2842
3.28415
3.28408
3.28398
3.28388
3.28377
3.28367
3.28358
3.28348
3.2834
3.28333
3.28329
3.28326
3.19368
3.19363
3.19356
3.19345
3.19331
3.19312
3.19288
3.19258
3.19221
3.19177
3.19125
3.19063
3.18992
3.1891
3.18817
3.18711
3.18593
3.18463
3.18324
3.18181
3.18033
3.1789
3.17792
3.21447
3.21269
3.23233
3.23247
3.23272
3.23344
3.23462
3.23639
3.23867
3.24133
3.2442
3.24707
3.23126
3.23331
3.1988
3.19815
3.19895
3.19963
3.2001
3.20041
3.20063
3.20077
3.20082
3.20082
3.20076
3.20067
3.20056
3.20043
3.2003
3.20017
3.20005
3.19993
3.19983
3.19974
3.19966
3.19962
3.19958
3.11402
3.11398
3.11391
3.11381
3.11366
3.11348
3.11324
3.11294
3.11258
3.11214
3.11162
3.11099
3.11027
3.10944
3.10848
3.10738
3.10615
3.10478
3.10329
3.10171
3.10011
3.09865
3.09768
3.13063
3.12918
3.14597
3.14691
3.14742
3.14839
3.14981
3.15174
3.15415
3.157
3.16007
3.16329
3.15082
3.15171
3.12108
3.11988
3.12039
3.1209
3.12126
3.12149
3.12164
3.1217
3.12168
3.12161
3.1215
3.12136
3.12121
3.12105
3.12089
3.12073
3.12059
3.12046
3.12034
3.12024
3.12016
3.12011
3.12007
3.03826
3.03822
3.03815
3.03805
3.03791
3.03774
3.03751
3.03722
3.03687
3.03644
3.03592
3.03531
3.03459
3.03375
3.03278
3.03166
3.0304
3.02899
3.02744
3.02577
3.02409
3.02258
3.02167
3.05148
3.05052
3.06453
3.0668
3.06833
3.07032
3.07262
3.07477
3.07674
3.07897
3.08153
3.08456
3.07552
3.07493
3.04752
3.04578
3.04589
3.04621
3.04643
3.04655
3.04657
3.04653
3.04643
3.04629
3.04612
3.04593
3.04573
3.04554
3.04534
3.04516
3.045
3.04485
3.04472
3.04461
3.04452
3.04446
3.04442
2.96612
2.96608
2.96601
2.96592
2.96579
2.96563
2.96542
2.96514
2.9648
2.96439
2.96389
2.96329
2.96259
2.96177
2.96081
2.9597
2.95844
2.95702
2.95546
2.95378
2.95212
2.95059
2.94981
2.97706
2.97659
2.98845
2.99415
2.99833
3.00458
3.01098
3.01381
3.01256
3.01054
3.01006
3.01115
3.0052
3.00283
2.97786
2.97567
2.97529
2.97533
2.97532
2.97526
2.97514
2.97498
2.97478
2.97456
2.97433
2.97408
2.97385
2.97361
2.97339
2.97318
2.973
2.97283
2.97269
2.97256
2.97247
2.9724
2.97236
2.89735
2.8973
2.89725
2.89717
2.89705
2.8969
2.8967
2.89645
2.89614
2.89575
2.89528
2.89471
2.89404
2.89325
2.89232
2.89124
2.89002
2.88864
2.88713
2.88554
2.88404
2.88259
2.8822
2.90754
2.90744
2.92006
2.93233
2.9458
2.97152
3.00256
3.0095
2.98752
2.96337
2.94974
2.94446
2.93955
2.93538
2.91182
2.9093
2.9083
2.90793
2.90763
2.90735
2.90707
2.90678
2.90648
2.90618
2.90587
2.90558
2.90529
2.90502
2.90477
2.90453
2.90433
2.90415
2.90399
2.90386
2.90375
2.90368
2.90364
2.83171
2.83167
2.83163
2.83155
2.83145
2.83132
2.83115
2.83092
2.83063
2.83028
2.82985
2.82933
2.8287
2.82797
2.8271
2.82609
2.82494
2.82366
2.82228
2.82088
2.81968
2.81852
2.81921
2.84353
2.84369
2.86235
2.88701
2.93171
3.06995
3.32884
3.364
3.14277
2.97852
2.91179
2.88793
2.87765
2.87259
2.84919
2.84635
2.84461
2.84374
2.8431
2.84258
2.84211
2.84168
2.84128
2.84089
2.84052
2.84017
2.83984
2.83953
2.83925
2.839
2.83877
2.83858
2.83841
2.83826
2.83815
2.83808
2.83803
2.76901
2.76898
2.76894
2.76888
2.76879
2.76868
2.76853
2.76833
2.76809
2.76778
2.7674
2.76693
2.76638
2.76571
2.76493
2.76403
2.76301
2.76189
2.76073
2.75964
2.75893
2.75838
2.76119
2.78557
2.78755
2.81782
2.8608
2.99923
3.78908
8.17344
7.94821
4.548
3.21074
2.92047
2.84701
2.81889
2.81462
2.78952
2.78645
2.7839
2.78247
2.78145
2.78067
2.78002
2.77946
2.77894
2.77848
2.77804
2.77764
2.77727
2.77693
2.77662
2.77635
2.77611
2.7759
2.77572
2.77556
2.77545
2.77537
2.77532
2.70905
2.70902
2.70899
2.70894
2.70887
2.70879
2.70867
2.70851
2.70831
2.70805
2.70773
2.70733
2.70686
2.7063
2.70564
2.70487
2.70403
2.70315
2.70231
2.70168
2.70165
2.70232
2.70873
2.73408
2.74166
2.78727
2.84719
3.17996
11.3494
13.957
3.95919
3.00015
2.82724
2.76265
2.76107
2.73246
2.72921
2.72583
2.72381
2.72241
2.72138
2.72056
2.71986
2.71925
2.71872
2.71823
2.71778
2.71738
2.71701
2.71668
2.71639
2.71614
2.71592
2.71573
2.71557
2.71546
2.71538
2.71533
2.65165
2.65162
2.6516
2.65157
2.65153
2.65147
2.65138
2.65126
2.65111
2.65091
2.65066
2.65035
2.64998
2.64953
2.64902
2.64844
2.64783
2.64725
2.64684
2.64682
2.64773
2.65058
2.66247
2.68985
2.7099
2.77353
2.86831
4.06862
30.4268
39.1294
69.3588
4.76269
3.1197
2.82559
2.7099
2.71149
2.67787
2.67434
2.67019
2.66758
2.66584
2.66458
2.66359
2.66278
2.66209
2.66149
2.66095
2.66047
2.66003
2.65964
2.65929
2.65898
2.65872
2.65849
2.65829
2.65813
2.65801
2.65793
2.65788
2.59666
2.59663
2.59662
2.59661
2.59658
2.59655
2.5965
2.59643
2.59633
2.59619
2.59602
2.59581
2.59555
2.59524
2.5949
2.59454
2.59421
2.59401
2.59413
2.59488
2.59706
2.60344
2.62305
2.65432
2.69834
2.78707
3.12516
7.47693
15.5061
14.0519
25.0819
27.7084
5.08388
3.21725
2.82959
2.66422
2.66459
2.62562
2.62148
2.61667
2.61353
2.61149
2.61003
2.60892
2.60801
2.60726
2.6066
2.60602
2.60551
2.60505
2.60464
2.60428
2.60395
2.60368
2.60344
2.60324
2.60307
2.60294
2.60286
2.60281
2.54391
2.54389
2.54389
2.54389
2.54389
2.54389
2.54388
2.54385
2.54381
2.54375
2.54366
2.54355
2.54341
2.54326
2.54311
2.543
2.54299
2.54322
2.54394
2.5456
2.54942
2.5608
2.59031
2.62863
2.71216
2.84795
4.28637
13.594
15.6317
18.819
28.0281
13.3693
4.87161
3.24443
2.81985
2.62755
2.61876
2.57565
2.57038
2.56499
2.56144
2.55918
2.55758
2.55636
2.5554
2.55459
2.5539
2.5533
2.55276
2.55229
2.55186
2.55149
2.55115
2.55087
2.55062
2.55042
2.55024
2.55012
2.55003
2.54997
2.49328
2.49326
2.49328
2.4933
2.49332
2.49335
2.49338
2.4934
2.49341
2.49342
2.49343
2.49342
2.49342
2.49343
2.49349
2.49363
2.49395
2.49463
2.49602
2.49872
2.50458
2.52204
2.56272
2.61199
2.74823
3.00979
6.02652
14.6458
13.7723
16.6793
16.559
8.61996
4.57976
3.22304
2.78407
2.59723
2.57276
2.52778
2.52085
2.51494
2.51114
2.50875
2.50706
2.50579
2.50479
2.50396
2.50325
2.50263
2.50209
2.5016
2.50117
2.50078
2.50044
2.50015
2.4999
2.49969
2.49952
2.49939
2.4993
2.49924
2.44464
2.44462
2.44465
2.44468
2.44473
2.44479
2.44486
2.44493
2.445
2.44509
2.44518
2.44528
2.44542
2.44559
2.44584
2.44622
2.44689
2.4481
2.45021
2.45402
2.46199
2.48577
2.53726
2.59995
2.78811
3.24949
6.73374
12.6893
12.8267
11.7118
11.0126
7.08839
4.46691
3.19564
2.7343
2.56592
2.52629
2.48183
2.47283
2.46641
2.46251
2.46007
2.45836
2.45709
2.45608
2.45525
2.45453
2.45391
2.45336
2.45287
2.45243
2.45204
2.4517
2.45141
2.45115
2.45094
2.45077
2.45064
2.45055
2.45049
2.39786
2.39785
2.39789
2.39794
2.39801
2.3981
2.3982
2.39832
2.39846
2.39861
2.39879
2.399
2.39926
2.39956
2.4
2.40069
2.40177
2.40351
2.40629
2.41115
2.42101
2.45044
2.51071
2.58595
2.80803
3.41205
6.50511
9.95076
11.5487
11.1809
10.6198
8.22709
4.79606
3.22094
2.69168
2.52557
2.47996
2.43731
2.4262
2.41929
2.41544
2.413
2.41134
2.41012
2.40915
2.40833
2.40763
2.40702
2.40647
2.40598
2.40555
2.40516
2.40482
2.40452
2.40427
2.40406
2.40388
2.40375
2.40366
2.4036
2.35285
2.35284
2.35289
2.35296
2.35305
2.35317
2.35331
2.35347
2.35366
2.35388
2.35414
2.35444
2.3548
2.35527
2.35595
2.35693
2.35836
2.36059
2.36398
2.36977
2.38112
2.41488
2.48133
2.56555
2.7998
3.43183
6.00287
7.56175
9.73158
9.98932
10.1247
9.16953
7.86856
3.44747
2.67925
2.47447
2.43456
2.39415
2.38098
2.37363
2.36997
2.36762
2.36601
2.36482
2.3639
2.36312
2.36245
2.36185
2.36132
2.36084
2.36041
2.36002
2.35968
2.35939
2.35914
2.35892
2.35875
2.35862
2.35853
2.35847
2.30949
2.30949
2.30955
2.30963
2.30974
2.30989
2.31006
2.31027
2.31051
2.31078
2.31108
2.31146
2.31196
2.31262
2.31351
2.31474
2.3165
2.31916
2.32309
2.32963
2.3421
2.37879
2.44922
2.53768
2.77224
3.368
5.48451
5.80914
7.65772
8.37716
8.54368
8.29325
8.8879
4.94382
2.71095
2.42872
2.39071
2.35198
2.33722
2.32958
2.32605
2.32379
2.32229
2.32113
2.32024
2.31951
2.31889
2.31833
2.31781
2.31734
2.31692
2.31654
2.31621
2.31591
2.31566
2.31545
2.31528
2.31515
2.31506
2.315
2.26771
2.26771
2.26777
2.26787
2.268
2.26817
2.26837
2.26861
2.26889
2.26919
2.26957
2.27006
2.27068
2.27149
2.27255
2.27401
2.27605
2.27908
2.28348
2.29059
2.304
2.34232
2.41437
2.50364
2.73244
3.26598
5.02656
4.61672
5.65616
6.61225
6.93446
6.94347
8.02523
6.82992
2.80852
2.42012
2.34893
2.31061
2.29483
2.2871
2.28371
2.28147
2.28008
2.27901
2.27816
2.27745
2.27686
2.27634
2.27586
2.27541
2.27499
2.27462
2.2743
2.27401
2.27376
2.27355
2.27338
2.27325
2.27316
2.2731
2.2274
2.22741
2.22748
2.22759
2.22773
2.22792
2.22814
2.2284
2.22871
2.22907
2.22953
2.2301
2.23082
2.23175
2.23296
2.23461
2.2369
2.24023
2.24503
2.25252
2.26676
2.30551
2.37727
2.46504
2.68594
3.158
4.62347
3.8486
4.11389
4.87529
5.36349
5.51304
7.07783
7.62011
3.11695
2.45997
2.30903
2.27009
2.25387
2.24613
2.24288
2.2407
2.23933
2.23835
2.23756
2.23689
2.23632
2.23583
2.23538
2.23495
2.23455
2.23419
2.23387
2.23359
2.23334
2.23313
2.23297
2.23284
2.23275
2.23268
2.1885
2.18851
2.18859
2.1887
2.18886
2.18906
2.18928
2.18956
2.18991
2.19033
2.19085
2.19149
2.19229
2.19332
2.19465
2.19646
2.19894
2.20251
2.20764
2.2154
2.23024
2.26859
2.33876
2.4236
2.63568
3.05618
4.29816
3.38286
3.07372
3.44309
4.05271
4.3489
6.51072
7.70136
3.66597
2.52772
2.27161
2.23055
2.21434
2.20665
2.20347
2.20138
2.20007
2.19909
2.19833
2.19769
2.19719
2.19672
2.19629
2.19589
2.19552
2.19516
2.19485
2.19457
2.19433
2.19413
2.19396
2.19383
2.19375
2.19368
2.15093
2.15093
2.15102
2.15114
2.1513
2.1515
2.15174
2.15206
2.15244
2.1529
2.15346
2.15415
2.15501
2.15611
2.15754
2.15947
2.16211
2.16583
2.17122
2.17915
2.1944
2.23183
2.29975
2.38088
2.58328
2.97028
4.09429
3.14029
2.45047
2.48395
2.96101
3.39774
5.97807
7.49547
4.24736
2.59616
2.23912
2.19222
2.1762
2.16862
2.16545
2.16344
2.16218
2.16124
2.16052
2.1599
2.15938
2.15895
2.15854
2.15816
2.15781
2.15747
2.15717
2.15689
2.15666
2.15646
2.15629
2.15617
2.15608
2.15601
2.11461
2.11462
2.11471
2.11483
2.11499
2.1152
2.11547
2.1158
2.1162
2.11668
2.11727
2.118
2.11891
2.12006
2.12157
2.12357
2.12631
2.13012
2.13576
2.14376
2.15921
2.19547
2.26099
2.33836
2.52987
2.89888
4.00496
3.17382
2.20817
1.91075
2.10746
2.71672
5.35009
7.18272
4.6968
2.64912
2.21415
2.1554
2.13941
2.13195
2.12876
2.12682
2.1256
2.1247
2.12401
2.12342
2.1229
2.12245
2.12207
2.1217
2.12136
2.12105
2.12075
2.12049
2.12025
2.12005
2.11989
2.11977
2.11969
2.11962
2.07949
2.0795
2.07959
2.07971
2.07987
2.0801
2.08038
2.08072
2.08113
2.08163
2.08224
2.08299
2.08392
2.08511
2.08666
2.0887
2.09151
2.09539
2.10121
2.10919
2.12468
2.15967
2.22309
2.2973
2.47675
2.83673
4.0026
3.46721
2.24443
1.65049
1.59981
2.40683
4.76464
6.85366
4.98464
2.68276
2.19767
2.1204
2.10392
2.09658
2.09335
2.09146
2.09026
2.08939
2.08872
2.08816
2.08766
2.08721
2.0868
2.08646
2.08613
2.08582
2.08554
2.08528
2.08505
2.08486
2.0847
2.08458
2.0845
2.08443
2.04551
2.04552
2.0456
2.04572
2.04589
2.04612
2.04641
2.04676
2.04717
2.04768
2.0483
2.04906
2.05
2.05121
2.05278
2.05483
2.05768
2.06159
2.0675
2.07546
2.09086
2.12457
2.18654
2.25878
2.42531
2.78077
3.98471
3.84826
2.52458
1.6206
1.45502
2.31619
4.31091
6.55303
5.14538
2.70145
2.18878
2.08751
2.06969
2.06244
2.05916
2.05731
2.05611
2.05527
2.05461
2.05406
2.05358
2.05313
2.05272
2.05236
2.05204
2.05174
2.05147
2.05122
2.051
2.05081
2.05065
2.05053
2.05045
2.05038
2.01261
2.01261
2.01269
2.01282
2.013
2.01323
2.01351
2.01386
2.01428
2.01479
2.0154
2.01616
2.0171
2.0183
2.01987
2.02189
2.02478
2.02868
2.03463
2.04256
2.05777
2.09028
2.15173
2.22377
2.37754
2.72283
3.89091
4.15494
2.90508
1.75069
1.63585
2.20107
4.00761
6.298
5.22341
2.71331
2.18529
2.05702
2.03671
2.02946
2.02613
2.02431
2.02311
2.02227
2.02162
2.02108
2.0206
2.02016
2.01976
2.01938
2.01905
2.01876
2.01849
2.01825
2.01804
2.01785
2.0177
2.01758
2.0175
2.01743
1.98074
1.98074
1.98082
1.98095
1.98112
1.98135
1.98164
1.98198
1.98239
1.98289
1.9835
1.98424
1.98518
1.98636
1.9879
1.9899
1.99278
1.99664
2.00257
2.0105
2.02545
2.05691
2.11903
2.19345
2.33607
2.68618
3.72405
4.23565
3.22585
2.00188
1.80264
2.06297
3.83195
6.0921
5.25544
2.7269
2.18471
2.02915
2.00497
1.99758
1.99421
1.99239
1.99118
1.99034
1.98969
1.98915
1.98867
1.98824
1.98784
1.98747
1.98712
1.98682
1.98656
1.98632
1.98611
1.98594
1.98578
1.98566
1.98558
1.98551
1.94985
1.94985
1.94993
1.95006
1.95023
1.95046
1.95073
1.95107
1.95147
1.95196
1.95255
1.95328
1.95419
1.95532
1.95682
1.9588
1.96165
1.96545
1.97132
1.97927
1.99393
2.02455
2.08878
2.16967
2.30466
2.6888
3.51864
4.09888
3.40245
2.29879
1.74736
1.99973
3.74311
5.93052
5.26719
2.74845
2.18487
2.00402
1.97445
1.96675
1.96333
1.96151
1.96028
1.95944
1.95878
1.95823
1.95775
1.95732
1.95692
1.95655
1.9562
1.95589
1.95561
1.95539
1.95518
1.95501
1.95486
1.95474
1.95466
1.95459
1.9199
1.91991
1.91999
1.92011
1.92028
1.92049
1.92076
1.92109
1.92148
1.92195
1.92252
1.92322
1.92409
1.92518
1.92664
1.92858
1.93137
1.9351
1.94089
1.94888
1.96322
1.99325
2.0612
2.15405
2.29339
2.69208
3.35581
3.91433
3.47072
2.26294
1.66002
2.0076
3.71086
5.79497
5.27007
2.78074
2.18412
1.98156
1.94515
1.9369
1.93345
1.93162
1.93036
1.92951
1.92883
1.92828
1.92779
1.92735
1.92695
1.92658
1.92623
1.92592
1.92563
1.92539
1.92519
1.92502
1.92488
1.92476
1.92468
1.92461
1.89086
1.89086
1.89094
1.89105
1.89122
1.89143
1.89169
1.892
1.89237
1.89283
1.89337
1.89404
1.89487
1.89591
1.89734
1.89921
1.90193
1.90559
1.91126
1.91932
1.93336
1.96297
2.03636
2.14642
2.31107
2.65109
3.33735
3.85646
3.27477
2.07144
1.61306
2.06432
3.72129
5.66841
5.2586
2.82201
2.18109
1.96144
1.91699
1.90798
1.9045
1.90265
1.90137
1.90049
1.8998
1.89924
1.89874
1.8983
1.89789
1.89751
1.89716
1.89685
1.89656
1.89631
1.8961
1.89593
1.89579
1.89568
1.89561
1.89554
1.86267
1.86267
1.86274
1.86286
1.86301
1.86322
1.86347
1.86376
1.86412
1.86455
1.86508
1.86571
1.86649
1.8675
1.86887
1.87068
1.87331
1.8769
1.88245
1.89056
1.90439
1.9336
2.0144
2.14545
2.3183
2.71404
3.40636
3.71397
2.93704
1.91707
1.60955
2.16309
3.76753
5.54219
5.21826
2.86524
2.17453
1.94306
1.88987
1.87994
1.87644
1.87456
1.87325
1.87236
1.87165
1.87107
1.87056
1.87011
1.86969
1.86931
1.86896
1.86864
1.86836
1.86811
1.86789
1.86771
1.86757
1.86746
1.86739
1.86732
1.8353
1.83531
1.83538
1.83549
1.83564
1.83583
1.83607
1.83635
1.83669
1.8371
1.8376
1.83819
1.83893
1.8399
1.84122
1.84296
1.84551
1.84904
1.85446
1.86261
1.87637
1.90571
1.99574
2.14775
2.30822
3.0512
3.37553
3.27551
2.38567
1.67103
1.62597
2.37995
4.0042
5.43147
4.91723
2.90166
2.16286
1.92567
1.86358
1.85272
1.84921
1.84731
1.84597
1.84505
1.84432
1.84373
1.84321
1.84275
1.84233
1.84194
1.84158
1.84126
1.84097
1.84072
1.8405
1.84031
1.84017
1.84007
1.84
1.83993
1.80873
1.80873
1.8088
1.8089
1.80905
1.80923
1.80946
1.80973
1.81005
1.81044
1.8109
1.81146
1.81217
1.81311
1.81437
1.81605
1.81852
1.82199
1.82733
1.83549
1.84942
1.87999
1.98011
2.16954
2.36044
3.05471
3.2446
2.94952
2.09577
1.52589
1.57412
2.32614
3.84143
5.19742
4.81075
2.9249
2.07395
1.90722
1.83788
1.82626
1.82276
1.82084
1.81948
1.81854
1.81779
1.81718
1.81665
1.81618
1.81575
1.81535
1.81499
1.81467
1.81438
1.81412
1.8139
1.81372
1.81356
1.81346
1.8134
1.81333
1.78291
1.78291
1.78298
1.78308
1.78322
1.78339
1.78361
1.78386
1.78417
1.78454
1.78497
1.7855
1.78619
1.78708
1.78829
1.78992
1.79232
1.79574
1.80101
1.80918
1.82348
1.85601
1.96344
2.17033
2.56666
3.02338
2.90324
2.32681
1.62657
1.33937
1.60654
2.47121
3.90754
4.92627
4.28693
2.6497
2.05541
1.88778
1.81268
1.80052
1.79704
1.79511
1.79374
1.79278
1.79201
1.79139
1.79084
1.79036
1.78992
1.78952
1.78916
1.78883
1.78854
1.78828
1.78806
1.78787
1.78772
1.78761
1.78754
1.78748
1.75782
1.75782
1.75788
1.75798
1.75811
1.75828
1.75848
1.75873
1.75902
1.75937
1.75977
1.76028
1.76095
1.7618
1.76297
1.76456
1.7669
1.77027
1.77551
1.78368
1.7985
1.8332
1.94549
2.172
2.55678
2.91706
2.67587
2.04894
1.41742
1.19457
1.47409
2.29709
3.66583
4.71094
4.19578
2.63342
2.03536
1.86759
1.78809
1.77548
1.77202
1.77009
1.7687
1.76773
1.76695
1.76631
1.76576
1.76526
1.76482
1.76441
1.76404
1.76371
1.76341
1.76316
1.76293
1.76274
1.76259
1.76248
1.76241
1.76235
1.73342
1.73343
1.73349
1.73358
1.73371
1.73387
1.73406
1.7343
1.73458
1.7349
1.73529
1.73578
1.73642
1.73725
1.73838
1.73994
1.74223
1.74557
1.75077
1.75896
1.77438
1.8113
1.9276
2.17104
2.53168
2.80949
2.46435
1.80826
1.23951
1.06851
1.35562
2.14162
3.45096
4.51108
4.10422
2.61511
2.01402
1.84696
1.76413
1.7511
1.74766
1.74574
1.74435
1.74336
1.74257
1.74192
1.74135
1.74085
1.7404
1.73999
1.73962
1.73928
1.73898
1.73872
1.7385
1.73831
1.73815
1.73804
1.73797
1.73791
1.7097
1.70971
1.70976
1.70985
1.70997
1.71013
1.71032
1.71054
1.71081
1.71111
1.71149
1.71197
1.71259
1.71339
1.7145
1.71602
1.71828
1.72159
1.72679
1.73501
1.75106
1.79019
1.91065
2.16682
2.49706
2.70548
2.27089
1.6009
1.08861
0.958978
1.2497
2.0029
3.25972
4.32681
4.0136
2.59495
1.99201
1.82614
1.74075
1.72734
1.72393
1.72204
1.72064
1.71964
1.71884
1.71818
1.71761
1.7171
1.71664
1.71623
1.71585
1.71551
1.71521
1.71495
1.71472
1.71453
1.71438
1.71426
1.71419
1.71413
1.68662
1.68663
1.68668
1.68677
1.68689
1.68704
1.68722
1.68744
1.68769
1.68799
1.68836
1.68882
1.68942
1.69021
1.69129
1.6928
1.69503
1.69832
1.70351
1.71179
1.72847
1.76981
1.89496
2.15924
2.45718
2.60706
2.09519
1.42232
0.96043
0.863896
1.15507
1.87896
3.08913
4.15747
3.92475
2.57306
1.9697
1.80525
1.71793
1.70418
1.70081
1.69894
1.69755
1.69655
1.69574
1.69507
1.69449
1.69398
1.69352
1.6931
1.69272
1.69238
1.69208
1.69181
1.69158
1.69139
1.69124
1.69112
1.69105
1.69099
1.66416
1.66417