/*--------------------------------*- C++ -*----------------------------------*\
  =========                 |
  \\      /  F ield         | OpenFOAM: The Open Source CFD Toolbox
   \\    /   O peration     | Website:  https://openfoam.org
    \\  /    A nd           | Version:  12
     \\/     M anipulation  |
\*---------------------------------------------------------------------------*/
FoamFile
{
    format      ascii;
    class       volScalarField;
    location    "380";
    object      p;
}
// * * * * * * * * * * * * * * * * * * * * * * * * * * * * * * * * * * * * * //

dimensions      [0 2 -2 0 0 0 0];

internalField   nonuniform List<scalar> 
16227
(
0.0960189
0.0960559
0.0961287
0.0962351
0.096372
0.0965348
0.0967182
0.0969155
0.0971191
0.09732
0.0975088
0.0976745
0.0978057
0.0978899
0.097914
0.0978646
0.097728
0.0974903
0.0971381
0.0966584
0.0960394
0.0952703
0.0943419
0.0932471
0.091981
0.0905412
0.0889279
0.0871442
0.0851963
0.0830928
0.0808452
0.0784674
0.0759757
0.0733878
0.0707231
0.0680018
0.0652444
0.0624717
0.0597039
0.0569606
0.0542602
0.0516199
0.0490556
0.0465813
0.0442098
0.041952
0.0398175
0.0378142
0.0359488
0.0342268
0.0326526
0.0312295
0.0299602
0.0288465
0.02789
0.0270918
0.0264529
0.0259735
0.0256538
0.0254937
0.0959914
0.0960292
0.0961036
0.0962124
0.0963525
0.0965194
0.0967076
0.0969105
0.0971204
0.0973285
0.0975251
0.0976994
0.0978397
0.0979334
0.0979674
0.0979281
0.0978016
0.0975738
0.0972311
0.0967603
0.0961492
0.0953868
0.0944638
0.0933727
0.0921085
0.0906685
0.089053
0.087265
0.0853106
0.0831985
0.0809404
0.0785508
0.0760459
0.073444
0.0707645
0.0680281
0.0652556
0.0624681
0.059686
0.0569291
0.0542161
0.0515643
0.0489895
0.046506
0.0441264
0.0418617
0.0397213
0.0377132
0.0358438
0.0341186
0.0325418
0.0311167
0.0298458
0.028731
0.0277739
0.0269754
0.0263362
0.0258566
0.0255368
0.0253768
0.0959315
0.0959711
0.0960491
0.0961633
0.0963105
0.0964863
0.0966852
0.0969006
0.0971247
0.0973487
0.0975627
0.0977558
0.0979163
0.0980312
0.0980872
0.0980703
0.0979662
0.0977604
0.0974387
0.0969875
0.096394
0.0956466
0.0947354
0.0936525
0.0923923
0.0909519
0.0893314
0.0875336
0.0855647
0.0834335
0.0811523
0.0787362
0.076202
0.0735685
0.0708561
0.068086
0.0652798
0.0624592
0.0596452
0.0568581
0.0541171
0.0514396
0.0488416
0.0463376
0.0439401
0.0416601
0.0395066
0.0374877
0.0356095
0.0338772
0.0322948
0.0308653
0.029591
0.0284739
0.0275154
0.0267159
0.026076
0.0255961
0.0252761
0.0251161
0.0958319
0.0958745
0.0959585
0.0960817
0.0962409
0.0964316
0.0966485
0.0968849
0.0971329
0.0973837
0.097627
0.097852
0.0980464
0.0981972
0.0982903
0.0983113
0.0982451
0.0980766
0.0977908
0.0973729
0.0968091
0.0960872
0.0951961
0.094127
0.0928736
0.0914326
0.0898034
0.087989
0.0859954
0.0838318
0.0815113
0.0790501
0.0764659
0.0737786
0.07101
0.0681824
0.0653187
0.0624419
0.0595738
0.0567357
0.0539471
0.0512262
0.0485892
0.0460506
0.0436231
0.0413172
0.039142
0.037105
0.0352123
0.0334683
0.0318767
0.0304399
0.0291601
0.0280395
0.0270785
0.0262774
0.0256366
0.0251561
0.0248358
0.0246757
0.0956915
0.0957383
0.0958305
0.0959662
0.096142
0.0963536
0.0965954
0.0968609
0.0971422
0.0974302
0.0977145
0.0979839
0.0982259
0.0984269
0.0985722
0.0986466
0.098634
0.0985183
0.0982833
0.0979125
0.0973911
0.0967055
0.0958431
0.094794
0.0935508
0.092109
0.0904678
0.0886299
0.0866014
0.0843921
0.0820159
0.0794907
0.0768355
0.074072
0.0712237
0.0683147
0.06537
0.0624137
0.0594696
0.0565598
0.0537048
0.0509234
0.0482322
0.0456458
0.0431768
0.0408355
0.0386306
0.0365692
0.0346567
0.0328971
0.031293
0.0298467
0.0285603
0.0274353
0.0264713
0.0256683
0.0250263
0.0245452
0.0242246
0.0240643
0.0955069
0.0955589
0.0956616
0.095813
0.0960097
0.0962475
0.0965209
0.0968232
0.0971466
0.0974819
0.0978185
0.0981445
0.0984473
0.0987127
0.0989252
0.0990684
0.0991252
0.0990783
0.0989096
0.0986004
0.0981347
0.0974971
0.0966731
0.0956509
0.0944217
0.09298
0.091324
0.0894561
0.0873828
0.0851142
0.0826659
0.0800575
0.07731
0.0744474
0.0714955
0.0684812
0.0654315
0.0623729
0.0593309
0.0563291
0.0533893
0.0505311
0.0477714
0.045125
0.0426041
0.040219
0.0379776
0.0358864
0.03395
0.0321714
0.0305525
0.0290952
0.0278019
0.026672
0.0257048
0.0248999
0.0242571
0.0237754
0.0234546
0.0232944
0.0952717
0.09533
0.0954452
0.0956154
0.0958373
0.0961067
0.0964182
0.0967651
0.0971395
0.0975322
0.0979326
0.0983281
0.0987055
0.0990502
0.0993458
0.0995745
0.0997179
0.0997572
0.0996716
0.0994407
0.099046
0.09847
0.0976956
0.096709
0.0954991
0.094059
0.0923859
0.0904817
0.0883529
0.0860107
0.0834723
0.0807596
0.0778964
0.0749096
0.0718282
0.0686822
0.0655018
0.0623162
0.0591531
0.0560382
0.0529947
0.0500428
0.0472002
0.0444816
0.041899
0.0394619
0.0371778
0.035052
0.0330881
0.0312879
0.0296526
0.0281843
0.0268837
0.025749
0.0247789
0.0239726
0.0233291
0.0228473
0.0225268
0.0223666
0.0949793
0.0950449
0.0951748
0.0953669
0.0956183
0.0959247
0.0962809
0.0966804
0.097115
0.0975758
0.0980518
0.0985304
0.0989973
0.0994373
0.0998331
0.100166
0.100415
0.10056
0.100577
0.100443
0.100137
0.099639
0.098928
0.0979873
0.0968037
0.0953678
0.0936756
0.0917282
0.0895324
0.0871003
0.0844513
0.0816106
0.078605
0.0754654
0.0722249
0.0689177
0.0655776
0.0622374
0.0589279
0.055677
0.0525094
0.0494464
0.0465061
0.0437031
0.0410489
0.0385525
0.0362199
0.0340556
0.0320615
0.0302377
0.0285854
0.0271068
0.0257994
0.0246604
0.0236883
0.0228815
0.0222383
0.0217571
0.0214371
0.0212774
0.0946235
0.0946975
0.094844
0.0950612
0.0953462
0.095695
0.0961026
0.0965624
0.0970668
0.0976064
0.0981705
0.0987462
0.0993184
0.099871
0.100386
0.100842
0.101219
0.101491
0.101633
0.101618
0.101422
0.10102
0.100389
0.0995073
0.0983585
0.0969306
0.0952177
0.0932199
0.0909442
0.0884037
0.0856208
0.0826243
0.0794456
0.0761204
0.072687
0.0691848
0.0656526
0.0621275
0.0586437
0.0552318
0.0519186
0.0487265
0.0456736
0.0427744
0.0400397
0.0374772
0.0350918
0.0328858
0.0308594
0.0290118
0.0273442
0.0258563
0.0245433
0.0234018
0.0224293
0.0216234
0.0209817
0.0205022
0.0201836
0.0200246
0.0941967
0.0942799
0.0944449
0.0946902
0.0950128
0.0954092
0.0958745
0.0964027
0.0969861
0.0976155
0.0982803
0.0989677
0.0996618
0.100346
0.101
0.101602
0.102129
0.102553
0.102845
0.102975
0.102913
0.10263
0.102099
0.101292
0.100189
0.0987752
0.0970407
0.094985
0.0926148
0.089945
0.0870012
0.0838172
0.0804297
0.0768808
0.0732157
0.06948
0.0657189
0.0619748
0.0582863
0.0546869
0.0512055
0.0478657
0.0446858
0.0416795
0.0388563
0.0362225
0.0337812
0.0315322
0.0294733
0.0276031
0.0259233
0.0244282
0.0231119
0.0219704
0.021
0.0201973
0.0195592
0.0190828
0.0187666
0.0186089
0.0936889
0.0937822
0.0939676
0.0942435
0.0946076
0.0950565
0.0955857
0.0961897
0.0968614
0.0975917
0.09837
0.0991839
0.100017
0.100852
0.101667
0.10244
0.103144
0.103748
0.104219
0.104522
0.104623
0.104488
0.10408
0.103369
0.102327
0.100935
0.0991792
0.0970579
0.0945773
0.0917542
0.0886182
0.0852093
0.0815713
0.0777544
0.0738121
0.0697988
0.0657671
0.0617659
0.0578389
0.0540235
0.0503506
0.0468445
0.0435235
0.0404002
0.0374823
0.0347739
0.032275
0.0299832
0.0278943
0.0260058
0.0243172
0.0228185
0.0215027
0.020365
0.0194002
0.0186038
0.0179716
0.0175003
0.0171878
0.017032
0.093089
0.0931932
0.0934005
0.0937096
0.0941184
0.0946242
0.0952232
0.0959102
0.0966789
0.0975209
0.0984257
0.0993813
0.100372
0.101378
0.102378
0.103348
0.104258
0.105074
0.105759
0.106271
0.10657
0.106614
0.10636
0.105771
0.104809
0.10345
0.101676
0.0994813
0.0968725
0.0938682
0.0905032
0.0868253
0.0828873
0.0787497
0.0744771
0.0701346
0.0657842
0.0614828
0.0572802
0.053218
0.0493292
0.0456386
0.0421637
0.0389152
0.0358983
0.0331138
0.0305579
0.0282261
0.0261124
0.0242125
0.02252
0.0210228
0.0197131
0.0185844
0.0176298
0.0168435
0.0162205
0.0157567
0.0154496
0.0152965
0.0923858
0.0925015
0.0927319
0.0930761
0.0935326
0.0940992
0.094773
0.0955496
0.0964236
0.0973877
0.0984319
0.0995444
0.100711
0.10191
0.103121
0.104317
0.105466
0.10653
0.107468
0.10823
0.108769
0.109033
0.108972
0.108536
0.10768
0.106371
0.104583
0.102308
0.0995508
0.0963327
0.0926948
0.0886948
0.0843971
0.0798758
0.0752095
0.0704768
0.0657518
0.0611012
0.056582
0.05224
0.0481104
0.0442178
0.0405778
0.0371983
0.0340809
0.0312219
0.0286132
0.0262477
0.0241182
0.022214
0.0205248
0.0190367
0.0177405
0.0166272
0.0156885
0.0149172
0.0143074
0.0138541
0.0135543
0.013405
0.0915675
0.0916952
0.0919497
0.0923305
0.0928369
0.0934675
0.0942203
0.0950922
0.0960789
0.0971746
0.0983703
0.0996552
0.101016
0.102432
0.10388
0.105334
0.106758
0.108111
0.109347
0.110409
0.111238
0.111772
0.111952
0.111712
0.110995
0.109757
0.107965
0.105603
0.102674
0.0992036
0.0952399
0.0908532
0.0861231
0.0811412
0.0760047
0.0708093
0.0656444
0.0605887
0.0557072
0.0510507
0.0466553
0.0425447
0.0387313
0.0352185
0.0320025
0.029074
0.0264212
0.0240341
0.0218993
0.0200004
0.0183246
0.0168558
0.0155822
0.0144925
0.0135767
0.0128263
0.0122343
0.0117953
0.0115052
0.0113608
0.0906224
0.0907622
0.0910413
0.0914596
0.0920172
0.0927139
0.0935489
0.0945206
0.0956262
0.0968617
0.0982203
0.0996921
0.101265
0.102921
0.104635
0.106381
0.108121
0.10981
0.111397
0.112816
0.113996
0.114863
0.115342
0.115352
0.114819
0.113683
0.1119
0.109445
0.10632
0.102551
0.0981962
0.093343
0.0880909
0.0825543
0.0768542
0.0711089
0.0654272
0.0599022
0.0546084
0.0496009
0.0449161
0.0405744
0.0365832
0.0329392
0.0296306
0.026643
0.0239609
0.0215683
0.0194418
0.017562
0.0159134
0.0144763
0.0132366
0.0121802
0.0112957
0.0105732
0.0100047
0.00958392
0.00930628
0.00916814
0.089538
0.08969
0.0899935
0.0904495
0.0910587
0.0918223
0.092741
0.0938153
0.0950444
0.0964264
0.0979573
0.0996293
0.101432
0.10335
0.105361
0.107435
0.109535
0.111613
0.11361
0.115454
0.117059
0.118337
0.119191
0.11952
0.119229
0.118238
0.116485
0.113935
0.110584
0.10646
0.101635
0.0962164
0.0903301
0.0841215
0.0777429
0.0713422
0.0650525
0.0589851
0.0532246
0.0478295
0.0428341
0.0382532
0.0340858
0.0303191
0.0269315
0.0239026
0.0212124
0.0188324
0.0167323
0.0148902
0.0132859
0.0118959
0.0107031
0.00969166
0.00884831
0.00816179
0.00762311
0.00722534
0.00696332
0.00683302
0.0883021
0.0884657
0.0887931
0.0892857
0.0899455
0.0907753
0.0917776
0.0929552
0.0943099
0.0958428
0.0975531
0.0994366
0.101486
0.103688
0.106023
0.108464
0.110972
0.113497
0.115975
0.118324
0.120444
0.122227
0.123552
0.124289
0.124318
0.123529
0.121839
0.119196
0.115586
0.11104
0.105646
0.0995366
0.0928749
0.0858468
0.0786467
0.0714613
0.0644555
0.0577622
0.0514771
0.0456593
0.0403377
0.0355167
0.0311827
0.0273103
0.0238675
0.0208258
0.0181534
0.0158093
0.0137594
0.0119783
0.0104385
0.00911334
0.00798329
0.00703016
0.00623915
0.00559769
0.00509602
0.00472653
0.00448357
0.00436288
0.0869023
0.087077
0.0874267
0.0879539
0.0886619
0.0895551
0.0906385
0.0919175
0.0933972
0.0950822
0.0969757
0.0990783
0.101387
0.103893
0.106581
0.109427
0.112392
0.115428
0.118466
0.121414
0.124157
0.126563
0.12848
0.129746
0.130197
0.129691
0.128112
0.125384
0.12148
0.11643
0.11034
0.103381
0.0957629
0.0877273
0.0795257
0.0713964
0.063546
0.0561332
0.049264
0.042994
0.0373398
0.032289
0.0278085
0.0238589
0.0203974
0.0173812
0.0147597
0.0124835
0.0105144
0.00882131
0.00736966
0.00613013
0.00508068
0.00420097
0.0034748
0.00288854
0.0024317
0.00209626
0.0018761
0.00176687
0.0853276
0.085512
0.0858817
0.0864401
0.087192
0.0881438
0.089303
0.0906783
0.0922785
0.0941127
0.0961892
0.098514
0.10109
0.103916
0.106982
0.110269
0.113744
0.11736
0.121044
0.124701
0.128198
0.131374
0.134041
0.135987
0.136995
0.13688
0.135484
0.132694
0.128459
0.122805
0.115862
0.107848
0.0990389
0.0897545
0.0803233
0.0710525
0.0622011
0.0539645
0.0464547
0.0397134
0.0337347
0.0284808
0.0238926
0.0199119
0.0164829
0.0135371
0.0110085
0.00884064
0.00699011
0.00541669
0.00408063
0.00295052
0.00200168
0.00121206
0.000564271
4.41009e-05
-0.000359495
-0.000654837
-0.000848151
-0.000943963
0.0835676
0.0837601
0.0841464
0.0847311
0.0855206
0.0865235
0.0877502
0.0892127
0.0909246
0.0929
0.0951533
0.0976976
0.100544
0.103699
0.107162
0.110923
0.114958
0.119224
0.12365
0.128139
0.132546
0.136677
0.1403
0.143128
0.144879
0.145305
0.144195
0.141382
0.136778
0.130397
0.122393
0.113053
0.102744
0.0918929
0.0809368
0.0702745
0.0602436
0.0510748
0.0428793
0.0356665
0.029394
0.0239879
0.0193567
0.0154155
0.0120822
0.00926378
0.0068815
0.00487183
0.00318342
0.00176599
0.000576731
-0.000417718
-0.00124408
-0.00192576
-0.00248068
-0.00292338
-0.00326496
-0.00351389
-0.00367627
-0.00375665
0.0816138
0.0818122
0.0822108
0.0828152
0.0836337
0.0846772
0.0859592
0.0874958
0.0893053
0.0914077
0.0938248
0.0965779
0.0996877
0.103172
0.107043
0.111302
0.115941
0.120926
0.126196
0.131655
0.137152
0.142466
0.147308
0.151291
0.154006
0.15518
0.154511
0.151754
0.146756
0.139505
0.130181
0.119162
0.106947
0.0941171
0.0812585
0.0688937
0.0574349
0.047224
0.0383205
0.0306695
0.0241687
0.0186955
0.0141171
0.01031
0.00715359
0.00453582
0.00236698
0.000574826
-0.000903129
-0.00212388
-0.00313194
-0.00396228
-0.00464309
-0.00519815
-0.00564533
-0.00599881
-0.00626964
-0.00646576
-0.00659317
-0.00665608
0.0794597
0.0796611
0.0800665
0.0806824
0.0815188
0.0825893
0.0839105
0.0855029
0.0873897
0.0895979
0.0921569
0.0950984
0.0984543
0.102257
0.106532
0.111302
0.116578
0.122343
0.128555
0.135132
0.141929
0.148709
0.155121
0.160657
0.164688
0.166886
0.166864
0.164275
0.158858
0.150537
0.139522
0.126319
0.111623
0.0962392
0.080964
0.0664816
0.0533958
0.0420767
0.0325
0.0245055
0.0179012
0.0124929
0.00809764
0.00453961
0.00166324
-0.000662206
-0.00253792
-0.00404578
-0.00525952
-0.00623896
-0.00702909
-0.00766569
-0.00817725
-0.00858685
-0.0089114
-0.00916429
-0.00935568
-0.00949296
-0.0095815
-0.00962505
0.0771014
0.0773026
0.0777079
0.0783252
0.0791661
0.0802466
0.0815867
0.0832108
0.0851482
0.0874324
0.0901018
0.0931992
0.0967698
0.100862
0.105523
0.110796
0.11672
0.123309
0.130552
0.138394
0.146718
0.155301
0.163733
0.171351
0.176947
0.180542
0.181494
0.179305
0.173523
0.16395
0.150817
0.134811
0.11692
0.0982719
0.0799698
0.0629041
0.0476603
0.0352182
0.0250743
0.0169203
0.0104145
0.00526426
0.00122214
-0.00194089
-0.00440967
-0.00633247
-0.00782315
-0.00897461
-0.00986603
-0.0105568
-0.0110913
-0.0115045
-0.0118235
-0.0120694
-0.0122571
-0.0123987
-0.0125028
-0.0125756
-0.0126218
-0.0126443
0.0745382
0.0747353
0.0751328
0.0757396
0.076569
0.0776391
0.078973
0.0805995
0.0825532
0.0848747
0.0876116
0.0908185
0.0945556
0.0988899
0.103893
0.109634
0.116189
0.123615
0.131949
0.141181
0.151253
0.16204
0.173099
0.18357
0.186293
0.191985
0.19479
0.194188
0.18939
0.179884
0.165719
0.147661
0.126944
0.105061
0.083456
0.0633277
0.0394874
0.0260159
0.0156334
0.00764159
0.00152673
-0.0031024
-0.00657112
-0.00915568
-0.011064
-0.0124581
-0.0134641
-0.0141824
-0.0146909
-0.0150453
-0.0152872
-0.0154486
-0.0155533
-0.0156188
-0.0156572
-0.0156782
-0.0156881
-0.0156919
-0.0156927
-0.0156926
0.0717735
0.0719619
0.0723428
0.0729257
0.073725
0.0747611
0.0760596
0.0776532
0.0795814
0.081892
0.0846412
0.0878958
0.0917317
0.096236
0.101507
0.107647
0.114772
0.122999
0.132431
0.143136
0.155127
0.168481
0.183201
0.189553
0.201911
0.21041
0.215532
0.216491
0.212001
0.201021
0.183434
0.160365
0.133783
0.105998
0.0791408
0.0550423
0.0357598
0.0135986
0.00371001
-0.00359693
-0.00891487
-0.0126869
-0.015308
-0.0170939
-0.0182669
-0.0189961
-0.0194157
-0.0196231
-0.0196885
-0.0196611
-0.0195766
-0.0194612
-0.0193328
-0.0192039
-0.0190829
-0.0189759
-0.0188866
-0.0188176
-0.0187709
-0.0187473
0.0688147
0.0689898
0.0693442
0.0698881
0.070637
0.0716124
0.0728424
0.0743623
0.0762162
0.0784578
0.0811516
0.0843755
0.0882211
0.0927958
0.0982256
0.104652
0.112234
0.121153
0.131605
0.143767
0.157737
0.173695
0.192854
0.202011
0.217562
0.227494
0.235257
0.239319
0.237066
0.226339
0.206346
0.178456
0.145561
0.111108
0.0779818
0.0422669
0.0213874
-0.00236813
-0.0109309
-0.0169798
-0.0210026
-0.023505
-0.0249592
-0.0256989
-0.0259479
-0.0258755
-0.0256083
-0.0252302
-0.0247979
-0.0243495
-0.0239107
-0.0234984
-0.0231227
-0.0227896
-0.0225023
-0.0222627
-0.0220711
-0.0219276
-0.0218321
-0.0217845
0.0656744
0.0658309
0.0661484
0.0666374
0.0673137
0.0681997
0.0693245
0.0707255
0.0724497
0.0745554
0.0771137
0.080212
0.0839561
0.0884723
0.0939134
0.100459
0.108319
0.117737
0.129005
0.142449
0.158283
0.176577
0.199781
0.213087
0.234472
0.250517
0.26342
0.272733
0.273894
0.262531
0.236765
0.198799
0.153951
0.108262
0.0662735
0.0237374
0.00262538
-0.0220065
-0.0283677
-0.0325717
-0.0347084
-0.0354752
-0.0354169
-0.0348518
-0.0339913
-0.0329884
-0.0319436
-0.030916
-0.0299426
-0.0290442
-0.0282319
-0.0275102
-0.0268793
-0.0263374
-0.0258814
-0.0255079
-0.0252134
-0.0249952
-0.0248511
-0.0247794
0.0623701
0.0625029
0.0627728
0.0631904
0.0637711
0.0645372
0.065518
0.0667514
0.0682854
0.0701809
0.072513
0.075376
0.0788861
0.0831856
0.0884497
0.0948928
0.102775
0.112399
0.124143
0.138505
0.155901
0.176292
0.203284
0.221311
0.249035
0.272764
0.294589
0.313354
0.322154
0.312293
0.278713
0.225293
0.162507
0.101351
0.0486243
-0.00115707
-0.0225807
-0.0459179
-0.0489546
-0.0503791
-0.04988
-0.0484017
-0.0464763
-0.04436
-0.0422272
-0.0401864
-0.0382935
-0.0365723
-0.0350313
-0.033668
-0.0324748
-0.0314412
-0.0305555
-0.0298067
-0.0291843
-0.0286796
-0.0282847
-0.0279938
-0.0278024
-0.0277075
0.058925
0.0590288
0.0592407
0.0595703
0.0600324
0.0606479
0.061445
0.0624602
0.0637407
0.0653468
0.0673544
0.0698604
0.0729861
0.076884
0.0817455
0.0878103
0.0953804
0.104819
0.116573
0.131296
0.149685
0.171715
0.201937
0.224938
0.259661
0.29313
0.327269
0.362511
0.387459
0.38426
0.339037
0.259075
0.167278
0.0843316
0.0195686
-0.0367117
-0.0554558
-0.074886
-0.0728608
-0.0701905
-0.0661938
-0.0619495
-0.0578264
-0.0539547
-0.0504282
-0.0472797
-0.0445018
-0.0420712
-0.0399596
-0.0381356
-0.0365693
-0.0352331
-0.0341022
-0.0331556
-0.0323751
-0.0317461
-0.0312566
-0.0308973
-0.0306614
-0.0305447
0.0553676
0.0554376
0.0555813
0.0558074
0.0561287
0.0565641
0.0571387
0.0578859
0.0588492
0.0600852
0.0616664
0.0636863
0.0662653
0.0695575
0.0737599
0.0791249
0.0859821
0.0947415
0.105901
0.120228
0.138671
0.161334
0.193446
0.221166
0.261743
0.306052
0.356359
0.418379
0.477442
0.4951
0.430647
0.299099
0.157827
0.0462892
-0.0289146
-0.0865438
-0.097564
-0.108819
-0.0995142
-0.0913342
-0.0830458
-0.0755985
-0.0690332
-0.0632808
-0.0583096
-0.0540421
-0.0503897
-0.0472713
-0.0446151
-0.0423569
-0.0404427
-0.0388266
-0.0374705
-0.0363432
-0.0354188
-0.0346772
-0.0341019
-0.0336807
-0.0334047
-0.0332683
0.0517314
0.0517633
0.05183
0.0519386
0.0520993
0.0523275
0.0526439
0.0530764
0.0536621
0.0544501
0.0555045
0.0569095
0.058776
0.0612487
0.0645177
0.0688299
0.0745182
0.0820151
0.0918365
0.104799
0.121992
0.143676
0.175363
0.206603
0.24999
0.30339
0.36889
0.467828
0.597767
0.680957
0.579349
0.331813
0.106467
-0.0335905
-0.107561
-0.15393
-0.149206
-0.146107
-0.127352
-0.112553
-0.0994772
-0.0886066
-0.0795224
-0.0719008
-0.0655395
-0.0602214
-0.0557649
-0.052025
-0.0488833
-0.0462425
-0.0440242
-0.0421651
-0.0406143
-0.0393312
-0.0382832
-0.0374447
-0.0367958
-0.0363215
-0.0360111
-0.0358578
0.0480547
0.048045
0.0480275
0.0480071
0.0479908
0.0479891
0.0480167
0.0480941
0.0482489
0.0485187
0.0489542
0.0496236
0.0506186
0.0520628
0.054123
0.0570188
0.0610556
0.0666493
0.0742878
0.0847513
0.0991243
0.117814
0.145998
0.178272
0.218733
0.274446
0.340171
0.46526
0.719009
1.02701
0.830451
0.278986
-0.0577818
-0.187706
-0.225547
-0.23811
-0.207407
-0.183203
-0.153756
-0.131995
-0.114166
-0.100017
-0.0886091
-0.079325
-0.0717638
-0.0655584
-0.0604358
-0.0561894
-0.0526567
-0.0497099
-0.0472497
-0.045198
-0.0434929
-0.0420864
-0.0409401
-0.0400246
-0.039317
-0.0388004
-0.0384625
-0.0382956
0.0443795
0.0443257
0.044219
0.0440615
0.0438562
0.0436079
0.0433238
0.0430149
0.0426965
0.0423913
0.0421313
0.0419617
0.0419461
0.0421737
0.0427707
0.043906
0.0458217
0.0488709
0.0534573
0.0602389
0.0701244
0.0836761
0.105059
0.135411
0.166523
0.212368
0.246638
0.310892
0.533788
1.57086
1.16624
-0.272507
-0.476529
-0.440966
-0.378471
-0.328335
-0.26399
-0.214494
-0.17516
-0.14733
-0.125549
-0.108774
-0.095581
-0.0850673
-0.0766448
-0.0698149
-0.0642326
-0.0596414
-0.0558442
-0.0526909
-0.0500672
-0.0478844
-0.0460738
-0.044582
-0.0433672
-0.0423977
-0.0416485
-0.0411016
-0.040744
-0.0405675
0.0407504
0.0406515
0.0404531
0.0401545
0.0397539
0.0392498
0.0386407
0.0379263
0.0371076
0.036189
0.0351793
0.0340949
0.0329627
0.0318255
0.0307513
0.0298365
0.0292254
0.029158
0.0298979
0.0319035
0.0357498
0.042172
0.0535472
0.0792506
0.0975564
0.126295
0.113929
0.0507951
-0.516522
-2.45465
-1.16882
-0.740531
-0.527031
-0.400824
-0.305804
-0.23314
-0.187607
-0.156143
-0.132114
-0.113916
-0.0998226
-0.088724
-0.0799124
-0.072808
-0.0670294
-0.0622923
-0.058382
-0.0551385
-0.0524411
-0.050197
-0.048335
-0.0468001
-0.0455494
-0.0445505
-0.0437782
-0.0432142
-0.0428452
-0.042663
0.0372133
0.0370695
0.0367801
0.036341
0.0357456
0.0349854
0.0340493
0.0329248
0.0315969
0.0300495
0.0282653
0.0262268
0.0239181
0.0213254
0.0184453
0.0152817
0.0118526
0.00824129
0.00451051
0.0008609
-0.00262144
-0.00501199
-0.00662709
0.0120989
0.0166734
0.0279621
-0.0105205
-0.0200343
1.01442
0.885388
-3.57773
-1.6087
-0.913492
-0.604139
-0.42723
-0.319261
-0.233509
-0.188026
-0.156638
-0.132806
-0.114816
-0.100955
-0.0900596
-0.0814173
-0.0744421
-0.0687634
-0.0640998
-0.0602407
-0.0570315
-0.0543555
-0.0521232
-0.0502663
-0.0487317
-0.0474786
-0.0464758
-0.0456992
-0.0451314
-0.0447596
-0.0445758
0.0338139
0.0336272
0.0332506
0.0326767
0.0318941
0.0308868
0.0296343
0.0281113
0.0262864
0.0241217
0.0215722
0.0185844
0.0150955
0.0110304
0.00630428
0.000816004
-0.00556179
-0.0129345
-0.0215001
-0.0313622
-0.0431079
-0.055646
-0.0730641
-0.0642876
-0.0766493
-0.086593
-0.164719
-0.105132
-0.597782
-1.64824
-2.54728
-2.59805
-1.41081
-0.848696
-0.571644
-0.394716
-0.298416
-0.214042
-0.175711
-0.148421
-0.12745
-0.111408
-0.09897
-0.0890872
-0.0811812
-0.0747403
-0.0694561
-0.0650816
-0.0614345
-0.0583808
-0.0558184
-0.0536686
-0.051871
-0.0503787
-0.0491553
-0.048173
-0.0474103
-0.0468515
-0.0464852
-0.0463039
0.0305961
0.0303701
0.0299134
0.0292156
0.0282605
0.0270253
0.0254801
0.0235873
0.0212993
0.0185572
0.0152885
0.0114042
0.00679495
0.00132299
-0.0051793
-0.0129212
-0.0221849
-0.0332753
-0.0467035
-0.0628846
-0.0833065
-0.106736
-0.14213
-0.14784
-0.185647
-0.223629
-0.310667
-0.115765
-0.406812
-1.20288
-1.5355
-1.28592
-0.894528
-0.619026
-0.44844
-0.313244
-0.247741
-0.178436
-0.152914
-0.132845
-0.116929
-0.104281
-0.0942705
-0.0860882
-0.0794054
-0.0738486
-0.0692132
-0.0653153
-0.0620207
-0.059229
-0.0568612
-0.0548563
-0.0531662
-0.0517534
-0.0505886
-0.0496488
-0.0489162
-0.0483779
-0.0480244
-0.0478493
0.0276003
0.02734
0.0268135
0.0260077
0.024902
0.0234675
0.0216659
0.0194486
0.0167532
0.0135018
0.00959721
0.0049174
-0.000688944
-0.00741656
-0.0155113
-0.0252815
-0.0371601
-0.0516316
-0.069542
-0.0915516
-0.120251
-0.154152
-0.207685
-0.232184
-0.304765
-0.389406
-0.513089
-0.49615
-0.565685
-0.94562
-1.05435
-0.703383
-0.480831
-0.363214
-0.28784
-0.206724
-0.17967
-0.134229
-0.124094
-0.112646
-0.102994
-0.0945719
-0.0876106
-0.0815722
-0.0764424
-0.0720145
-0.0682113
-0.0649286
-0.0620923
-0.0596441
-0.0575345
-0.0557238
-0.05418
-0.0528771
-0.0517943
-0.0509151
-0.0502262
-0.0497182
-0.0493836
-0.0492177
0.0248619
0.0245737
0.0239906
0.0230971
0.021869
0.0202724
0.0182624
0.0157807
0.0127533
0.00908654
0.00466271
-0.000666952
-0.00708876
-0.014843
-0.0242411
-0.0356689
-0.0496894
-0.0669043
-0.0884745
-0.115139
-0.150677
-0.192867
-0.261268
-0.304726
-0.410193
-0.547674
-0.740329
-1.13387
-1.49963
-1.33437
-0.849488
-0.407605
-0.185104
-0.138654
-0.132066
-0.100813
-0.109157
-0.089688
-0.0942638
-0.0910649
-0.0877737
-0.0836909
-0.0799372
-0.0761855
-0.0727409
-0.0695541
-0.0666757
-0.064084
-0.0617683
-0.059714
-0.0579033
-0.0563199
-0.0549491
-0.0537776
-0.052794
-0.0519887
-0.0513537
-0.0508832
-0.0505724
-0.050418
0.0224097
0.0221013
0.021477
0.0205198
0.0192028
0.0174886
0.0153273
0.012654
0.00938598
0.00541872
0.000620066
-0.00517785
-0.0121857
-0.0206741
-0.0310008
-0.043594
-0.0591117
-0.0781876
-0.102243
-0.131829
-0.171861
-0.218643
-0.295525
-0.352063
-0.471506
-0.634853
-0.83652
-1.33529
-2.01659
-1.89022
-0.748787
-0.0213687
0.100821
0.0388367
-0.00977209
-0.0152038
-0.0483533
-0.0514674
-0.0675727
-0.0709819
-0.0732374
-0.0729949
-0.0721922
-0.0705904
-0.0687711
-0.0668041
-0.0648501
-0.06296
-0.0611803
-0.0595368
-0.0580414
-0.0567005
-0.0555162
-0.0544878
-0.0536132
-0.0528899
-0.0523151
-0.0518868
-0.0516029
-0.0514615
0.0202648
0.0199447
0.0192964
0.0183022
0.0169337
0.0151515
0.0129029
0.0101196
0.00671405
0.00257589
-0.00243414
-0.008494
-0.0158259
-0.0247144
-0.0355387
-0.0487306
-0.0649914
-0.0849035
-0.110112
-0.140652
-0.182432
-0.22973
-0.307651
-0.368427
-0.481569
-0.635976
-0.76903
-1.04063
-1.42625
-1.34198
-0.552872
0.157657
0.242605
0.130664
0.0598144
0.0383636
-0.00513581
-0.0231808
-0.0465865
-0.0543892
-0.0608334
-0.0635505
-0.0651536
-0.0653581
-0.0649539
-0.0640759
-0.0629662
-0.0617298
-0.0604587
-0.059211
-0.0580238
-0.0569231
-0.0559258
-0.0550424
-0.0542794
-0.0536408
-0.0531288
-0.0527446
-0.0524889
-0.0523613
0.01844
0.018117
0.0174629
0.0164598
0.0150792
0.0132814
0.0110134
0.00820638
0.00477245
0.000600993
-0.00444706
-0.0105504
-0.0179309
-0.0268687
-0.0377336
-0.0509314
-0.0671859
-0.0869316
-0.111988
-0.141679
-0.182598
-0.227132
-0.299977
-0.358901
-0.453122
-0.576847
-0.633337
-0.722895
-0.828832
-0.704137
-0.290497
-0.218154
-0.21519
0.0660696
0.0712674
0.0599988
0.0185275
-0.00600501
-0.0322955
-0.0422891
-0.0513915
-0.0560416
-0.0593611
-0.0609123
-0.061617
-0.0616227
-0.0612193
-0.0605442
-0.0597198
-0.0588266
-0.0579206
-0.0570426
-0.0562211
-0.0554757
-0.0548202
-0.054264
-0.0538134
-0.0534729
-0.053245
-0.0531311
0.0169387
0.0166218
0.0159802
0.0149966
0.0136437
0.0118832
0.00966396
0.0069201
0.00356763
-0.000499262
-0.00541284
-0.0113438
-0.0185019
-0.0271392
-0.0376122
-0.050267
-0.0658287
-0.0845143
-0.108264
-0.135652
-0.17359
-0.213301
-0.276993
-0.330921
-0.402677
-0.493238
-0.506235
-0.514965
-0.528388
-0.420781
-0.234702
-0.549985
-0.516434
-0.0568605
0.0476972
0.0585219
0.0261815
0.00107156
-0.0245185
-0.0348678
-0.0451686
-0.050766
-0.0551014
-0.0575082
-0.0589764
-0.0596231
-0.0597548
-0.0595203
-0.0590574
-0.0584587
-0.0577917
-0.0571069
-0.0564406
-0.0558191
-0.0552612
-0.0547808
-0.0543872
-0.0540875
-0.0538859
-0.0537849
0.0157552
0.0154531
0.0148417
0.0139052
0.0126182
0.0109456
0.00884084
0.00624353
0.00307745
-0.000754678
-0.00537377
-0.0109284
-0.0176084
-0.0256307
-0.0353263
-0.046954
-0.0612221
-0.0780952
-0.0995893
-0.123626
-0.157081
-0.190907
-0.243538
-0.291522
-0.343327
-0.406544
-0.404144
-0.400189
-0.378056
-0.348209
-0.238481
0.103302
-0.045509
-0.0287399
0.0318625
0.0449285
0.0227433
0.000372522
-0.0222559
-0.0317234
-0.0420026
-0.0477185
-0.0524473
-0.0552507
-0.057141
-0.0581794
-0.0586646
-0.0587379
-0.0585388
-0.0581635
-0.0576839
-0.0571547
-0.0566164
-0.0560991
-0.0556249
-0.0552103
-0.0548669
-0.0546033
-0.0544252
-0.0543358
0.0148751
0.0145958
0.0140309
0.0131666
0.0119808
0.0104429
0.00851258
0.00613744
0.00325153
-0.000230118
-0.00440778
-0.00940512
-0.0153861
-0.0225231
-0.0311115
-0.0413065
-0.0537872
-0.0682694
-0.0867964
-0.106832
-0.134864
-0.162391
-0.203714
-0.245655
-0.281917
-0.327189
-0.319631
-0.26821
-0.277605
-0.417703
-0.00714074
1.00619
0.466728
0.06185
0.0304561
0.0265792
0.0126119
-0.00558186
-0.0241729
-0.0320662
-0.0414773
-0.0466907
-0.0513048
-0.0541183
-0.0561286
-0.0573278
-0.0579898
-0.0582391
-0.0582042
-0.0579775
-0.0576292
-0.0572141
-0.0567728
-0.0563368
-0.0559295
-0.0555685
-0.0552666
-0.0550334
-0.0548751
-0.0547954
0.0142757
0.0140261
0.0135219
0.0127518
0.0116977
0.0103349
0.00863052
0.00654146
0.0040152
0.000985521
-0.00262675
-0.00691813
-0.0120206
-0.018053
-0.0252694
-0.0337148
-0.0440355
-0.0557179
-0.070779
-0.0864574
-0.108557
-0.129782
-0.160383
-0.196435
-0.221242
-0.2528
-0.235259
-0.255918
-0.31406
-0.26883
0.197148
0.99645
0.447623
0.0539489
0.0164138
0.00558592
-0.00126684
-0.0147097
-0.0289985
-0.0350125
-0.0430457
-0.0473665
-0.0514781
-0.0539986
-0.0558851
-0.0570498
-0.0577305
-0.0580326
-0.0580683
-0.0579179
-0.0576454
-0.0573019
-0.0569257
-0.0565469
-0.0561885
-0.0558679
-0.055598
-0.0553885
-0.0552459
-0.055174
0.0139269
0.0137129
0.013281
0.0126229
0.0117253
0.0105698
0.0091319
0.0073808
0.00527924
0.00278028
-0.000172667
-0.00364507
-0.00773348
-0.0124982
-0.0181495
-0.0246236
-0.0325243
-0.0411452
-0.0524294
-0.063605
-0.079586
-0.0946375
-0.115317
-0.145699
-0.161663
-0.185153
-0.20855
-0.220857
-0.157098
-0.123278
0.140348
0.432651
0.140533
-0.0253721
-0.0168224
-0.0171265
-0.0170467
-0.0255301
-0.0357139
-0.0397832
-0.0461636
-0.0493791
-0.0527336
-0.0547396
-0.0563076
-0.0572775
-0.0578495
-0.0581005
-0.0581233
-0.0579845
-0.0577367
-0.057425
-0.0570831
-0.056738
-0.0564106
-0.056117
-0.0558693
-0.0556768
-0.0555455
-0.0554794
0.0137932
0.0136188
0.0132678
0.012735
0.012012
0.0110872
0.00994583
0.00857008
0.00693828
0.00502327
0.00279274
0.000215086
-0.00277035
-0.00616436
-0.0101324
-0.0145049
-0.0198337
-0.0252757
-0.0326317
-0.0392708
-0.0491092
-0.0581211
-0.0695323
-0.0945492
-0.104169
-0.120414
-0.112545
-0.101047
-0.125977
-0.0728725
-0.0249055
-0.00959216
-0.0895771
-0.0793548
-0.0492382
-0.0391451
-0.0332963
-0.0370886
-0.0435694
-0.0457612
-0.0503605
-0.0523686
-0.0548082
-0.0561574
-0.0572684
-0.0579229
-0.0582842
-0.058403
-0.0583447
-0.0581623
-0.0578958
-0.057581
-0.0572457
-0.0569128
-0.0565999
-0.0563208
-0.0560861
-0.055904
-0.05578
-0.0557175
0.0138344
0.0137024
0.0134376
0.0130382
0.0125007
0.0118208
0.0109939
0.0100143
0.00887641
0.00757317
0.00609714
0.00445072
0.00260802
0.000626571
-0.00161345
-0.00384436
-0.0065579
-0.00882018
-0.0122047
-0.0143469
-0.018093
-0.0211718
-0.0236373
-0.043439
-0.0481354
-0.0590397
-0.0625053
-0.0883282
-0.0669472
-0.0506382
-0.15294
-0.206497
-0.131597
-0.081929
-0.0672479
-0.0580109
-0.0488902