/*--------------------------------*- C++ -*----------------------------------*\
  =========                 |
  \\      /  F ield         | OpenFOAM: The Open Source CFD Toolbox
   \\    /   O peration     | Website:  https://openfoam.org
    \\  /    A nd           | Version:  12
     \\/     M anipulation  |
\*---------------------------------------------------------------------------*/
FoamFile
{
    format      ascii;
    class       surfaceScalarField;
    location    "380";
    object      phi;
}
// * * * * * * * * * * * * * * * * * * * * * * * * * * * * * * * * * * * * * //

dimensions      [0 3 -1 0 0 0 0];

internalField   nonuniform List<scalar> 
32440
(
-3.73902e-07
0.0399884
1.25365e-06
0.0399884
-1.11357e-06
0.0399904
5.27388e-07
0.0399884
-1.82061e-06
0.0399903
-1.54793e-07
0.0399983
-4.7218e-07
0.0400103
-7.69485e-07
0.0400103
9.56661e-07
0.0400103
2.7094e-06
0.0400102
4.49149e-06
0.0400102
3.06389e-07
0.0400042
1.58038e-07
0.0400001
4.88759e-08
0.0400001
-1.84742e-08
0.0400001
-4.17811e-08
0.04
-1.93749e-08
0.04
4.97391e-08
0.0399999
1.65805e-07
0.0399999
3.28345e-07
0.0399998
5.35864e-07
0.0399998
7.86079e-07
0.0399997
1.07518e-06
0.0399997
1.39849e-06
0.0399997
1.75043e-06
0.0399996
2.12464e-06
0.0399996
2.51427e-06
0.0399996
2.91104e-06
0.0399996
1.70892e-06
0.0400012
-3.56028e-06
0.0400053
-4.72021e-06
0.0400012
-4.56231e-06
0.0399998
-4.23033e-06
0.0399997
-3.92885e-06
0.0399997
-2.66135e-06
0.0399987
-2.43005e-06
0.0399998
-2.23674e-06
0.0399998
-2.08145e-06
0.0399998
-1.96369e-06
0.0399999
-1.88203e-06
0.0399999
-1.83443e-06
0.04
-1.81834e-06
0.04
-1.83092e-06
0.04
-1.86903e-06
0.04
-1.93001e-06
0.0400001
-2.01057e-06
0.0400001
-2.10774e-06
0.0400001
-2.21811e-06
0.0400001
-2.34057e-06
0.0400001
-2.47186e-06
0.0400001
-2.61039e-06
0.0400001
-4.75431e-06
0.0400021
-1.09013e-05
0.0400061
-5.05314e-06
0.0400062
-1.20846e-06
0.0400082
-1.36543e-06
0.0400102
4.76961e-07
0.0399982
3.18998e-07
0.0399882
1.61083e-07
0.0399902
0.0399882
-6.92776e-07
0.0399891
-1.37575e-06
0.0399891
-2.0327e-06
0.039991
-2.65069e-06
0.039989
-1.21668e-06
0.0399889
2.8237e-07
0.0399968
1.85961e-06
0.0400087
1.52831e-06
0.0400106
3.30149e-06
0.0400085
7.19168e-06
0.0400064
1.12109e-05
0.0400062
3.36996e-06
0.040012
-3.19353e-07
0.0400038
1.51424e-07
0.0399996
7.88745e-07
0.0399994
1.59715e-06
0.0399992
2.5783e-06
0.039999
3.73053e-06
0.0399988
5.04831e-06
0.0399986
6.52296e-06
0.0399984
8.14063e-06
0.0399982
9.88502e-06
0.039998
1.17333e-05
0.0399979
1.366e-05
0.0399977
1.5636e-05
0.0399977
1.78298e-05
0.0399974
1.98076e-05
0.0399976
2.13359e-05
0.0399981
2.17805e-05
0.0400008
1.7804e-05
0.0400092
1.78947e-05
0.0400011
1.9307e-05
0.0399984
2.05245e-05
0.0399985
2.15302e-05
0.0399987
2.11122e-05
0.0399992
2.16666e-05
0.0399992
2.19873e-05
0.0399995
2.20804e-05
0.0399998
2.19531e-05
0.04
2.16167e-05
0.0400003
2.10854e-05
0.0400005
2.03754e-05
0.0400007
1.95042e-05
0.0400009
1.84916e-05
0.0400011
1.93519e-05
0.0399992
1.81045e-05
0.0400013
1.67662e-05
0.0400014
1.53512e-05
0.0400015
1.3875e-05
0.0400016
1.23508e-05
0.0400017
8.78613e-06
0.0400037
3.19463e-06
0.0400077
-4.18319e-07
0.0400098
-5.22756e-08
0.0400058
3.01454e-07
0.0400078
6.47645e-07
0.0400098
4.98945e-06
0.0399938
1.32871e-06
0.0399918
1.66688e-06
0.0399898
0.0399898
-7.45752e-07
0.0399898
-1.46985e-06
0.0399898
-1.45731e-07
0.0399897
-7.49698e-07
0.0399896
-3.25778e-06
0.0399914
2.35432e-06
0.0399912
2.10989e-06
0.040009
4.03345e-06
0.0400087
6.1479e-06
0.0400064
8.47625e-06
0.040004
1.10392e-05
0.0400036
3.85602e-06
0.0400192
2.94526e-06
0.0400047
4.32149e-06
0.0399983
5.99491e-06
0.0399978
7.972e-06
0.0399972
1.02532e-05
0.0399967
1.28328e-05
0.0399962
1.96972e-05
0.0399917
1.88272e-05
0.0399992
2.21953e-05
0.0399948
2.57671e-05
0.0399944
2.94983e-05
0.0399941
3.33384e-05
0.0399939
3.72313e-05
0.0399938
4.11162e-05
0.0399935
4.49293e-05
0.0399938
4.86026e-05
0.0399944
5.04782e-05
0.0399989
4.80068e-05
0.0400117
4.93943e-05
0.0399997
5.17261e-05
0.0399961
5.38522e-05
0.0399963
5.55426e-05
0.039997
5.7777e-05
0.0399969
5.85428e-05
0.0399984
5.88446e-05
0.0399992
5.86939e-05
0.0399999
5.80993e-05
0.0400006
5.70896e-05
0.0400013
5.5694e-05
0.0400019
5.39459e-05
0.0400024
5.1884e-05
0.0400029
4.9535e-05
0.0400034
4.49435e-05
0.0400038
4.21418e-05
0.0400041
3.91663e-05
0.0400044
3.80412e-05
0.0400027
3.47965e-05
0.0400048
2.9457e-05
0.040007
2.40444e-05
0.0400091
1.05862e-05
0.0400212
1.3072e-05
0.0400073
1.15256e-05
0.0400073
9.95869e-06
0.0400094
1.03778e-05
0.0400094
1.07895e-05
0.0399934
7.19601e-06
0.0399954
3.60001e-06
0.0399934
0.0399934
-8.59664e-07
0.0399907
-1.68512e-06
0.0399906
-2.44155e-06
0.0399905
-3.09461e-06
0.0399902
-1.60966e-06
0.0399899
-1.95205e-06
0.0399916
3.91313e-06
0.0400031
6.0197e-06
0.0400066
8.40223e-06
0.040004
9.09343e-06
0.0400033
1.01246e-05
0.0400026
7.52313e-06
0.0400218
5.31507e-06
0.040007
5.52187e-06
0.0399981
8.16003e-06
0.0399951
1.32368e-05
0.0399922
1.87549e-05
0.0399912
3.27056e-05
0.0399822
4.30717e-05
0.0399813
3.58137e-05
0.0400065
3.49046e-05
0.0399957
4.02846e-05
0.0399891
4.58905e-05
0.0399885
5.16435e-05
0.0399882
5.74654e-05
0.039988
6.3262e-05
0.0399878
6.89378e-05
0.0399881
7.4199e-05
0.0399891
7.79399e-05
0.0399951
7.70038e-05
0.0400127
7.97386e-05
0.0399969
8.32375e-05
0.0399926
8.65122e-05
0.039993
8.89242e-05
0.0399946
8.94439e-05
0.0399964
9.04582e-05
0.0399974
9.07691e-05
0.0399989
9.03937e-05
0.0400003
9.13572e-05
0.0399996
8.96978e-05
0.0400029
8.74612e-05
0.0400041
8.47042e-05
0.0400052
8.14657e-05
0.0400062
7.78147e-05
0.0400071
7.38061e-05
0.0400078
6.94832e-05
0.0400085
6.48971e-05
0.040009
5.8103e-05
0.0400094
5.5132e-05
0.0400078
5.00233e-05
0.0400121
3.4814e-05
0.0400243
2.95281e-05
0.0400265
2.41652e-05
0.0400126
2.07597e-05
0.0400107
1.73268e-05
0.0400128
1.98779e-05
0.0400068
1.44156e-05
0.0399989
1.09472e-05
0.0399989
5.47484e-06
0.0399989
0.0399989
-1.07977e-06
0.0399918
-2.11251e-06
0.0399916
-3.05586e-06
0.0399914
-3.86483e-06
0.039991
-4.49481e-06
0.0399906
-2.8998e-06
0.03999
4.96554e-06
0.0399953
5.14678e-06
0.0400064
5.68855e-06
0.0400035
8.6352e-06
0.0400004
1.20291e-05
0.0399992
1.3909e-05
0.0400199
8.3069e-06
0.0400126
9.25387e-06
0.0399971
1.27724e-05
0.0399916
1.68767e-05
0.0399881
2.75677e-05
0.0399805
4.6842e-05
0.039963
4.6671e-05
0.0399815
4.30089e-05
0.0400102
4.58177e-05
0.0399929
5.30171e-05
0.0399819
6.05263e-05
0.039981
6.82453e-05
0.0399804
7.60548e-05
0.0399801
8.38343e-05
0.03998
9.1454e-05
0.0399805
9.87754e-05
0.0399818
0.000104085
0.0399898
0.000104757
0.040012
0.000108945
0.0399928
0.000113876
0.0399877
0.000117773
0.0399892
0.000121179
0.0399912
0.00012424
0.0399933
0.000125548
0.0399961
0.000125905
0.0399985
0.000125329
0.0400009
0.00012188
0.0400031
0.000119588
0.0400052
0.000116526
0.0400072
0.000114765
0.040007
0.000110376
0.0400106
0.000105442
0.040012
0.000100019
0.0400132
9.41958e-05
0.0400143
8.80381e-05
0.0400152
8.15914e-05
0.0400159
7.29285e-05
0.0400165
5.80895e-05
0.0400269
3.91413e-05
0.0400433
4.40494e-05
0.0400216
3.88842e-05
0.0400178
3.16704e-05
0.040018
2.84229e-05
0.0400161
2.91552e-05
0.0400061
2.18752e-05
0.0400061
1.45862e-05
0.0400062
7.29335e-06
0.0400062
0.0400062
-1.39784e-06
0.0399932
-7.35776e-07
0.039991
-1.9645e-06
0.0399926
-3.02862e-06
0.0399921
-3.87261e-06
0.0399914
-4.44008e-06
0.0399905
-6.74359e-07
0.0399915
5.48135e-06
0.0400003
6.08374e-06
0.0400029
7.18852e-06
0.0399993
1.085e-05
0.0399955
3.11189e-05
0.0399997
1.60438e-05
0.0400276
1.16574e-05
0.0400015
1.39923e-05
0.0399893
2.10688e-05
0.039981
3.48946e-05
0.0399667
4.54639e-05
0.0399524
4.87462e-05
0.0399782
4.86999e-05
0.0400102
5.52611e-05
0.0399863
6.43368e-05
0.0399728
7.38218e-05
0.0399715
8.35881e-05
0.0399707
9.34848e-05
0.0399703
0.000103362
0.0399701
0.000113248
0.0399706
0.000122176
0.0399729
0.000129561
0.0399824
0.000131978
0.0400096
0.000137724
0.039987
0.000143804
0.0399816
0.00014921
0.0399837
0.000153057
0.0399873
0.000154911
0.0399915
0.000156555
0.0399945
0.000158978
0.0399961
0.000158222
0.0400016
0.000156342
0.040005
0.000153404
0.0400082
0.000149504
0.0400111
0.000142707
0.0400138
0.000137145
0.0400161
0.000132885
0.0400162
0.000126048
0.0400201
0.000118705
0.0400216
0.000110948
0.0400229
0.000102853
0.040024
9.2488e-05
0.0400268
7.39289e-05
0.0400455
6.72178e-05
0.04005
6.03476e-05
0.0400284
5.13998e-05
0.0400268
4.43987e-05
0.040025
4.53691e-05
0.0400151
3.63093e-05
0.0400152
2.72377e-05
0.0400152
1.81598e-05
0.0400152
9.07904e-06
0.0400153
0.0400153
-1.80973e-06
0.039995
-3.54735e-06
0.0399927
-5.15599e-06
0.0399942
-6.57034e-06
0.0399935
-7.72441e-06
0.0399926
-8.55086e-06
0.0399914
-6.9817e-06
0.0399899
1.05232e-06
0.0399922
3.61955e-06
0.0400003
6.7887e-06
0.0399961
8.62792e-06
0.0399937
1.52024e-05
0.0399931
2.05716e-05
0.0400223
1.07835e-05
0.0400113
1.58753e-05
0.0399842
2.78785e-05
0.039969
5.48084e-05
0.0399398
4.66716e-05
0.0399605
5.14238e-05
0.0399735
5.50268e-05
0.0400066
6.34001e-05
0.039978
7.44341e-05
0.0399617
8.60014e-05
0.03996
9.79392e-05
0.0399587
0.000110082
0.0399581
0.000122417
0.0399578
0.000134137
0.0399589
0.000145617
0.0399614
0.000154859
0.0399732
0.000159184
0.0400052
0.000166612
0.0399796
0.000174367
0.0399738
0.00018058
0.0399775
0.000185765
0.0399822
0.000190062
0.0399872
0.000192052
0.0399925
0.000190544
0.0399976
0.000189584
0.0400026
0.000187245
0.0400073
0.000185617
0.0400098
0.000180811
0.0400159
0.00017494
0.0400196
0.000168131
0.0400229
0.000158511
0.0400259
0.000152179
0.0400264
0.000143275
0.0400305
0.00013388
0.0400323
0.000124094
0.0400338
0.000102011
0.0400489
7.57428e-05
0.0400718
8.32156e-05
0.0400425
7.4558e-05
0.0400371
6.58306e-05
0.0400355
6.30502e-05
0.0400277
5.22302e-05
0.0400259
4.13909e-05
0.040026
3.05437e-05
0.0400261
1.96937e-05
0.0400261
1.08458e-05
0.0400241
0.0400261
-3.17688e-07
0.0399953
-4.55227e-06
0.0399969
-6.63869e-06
0.0399963
-6.5018e-06
0.0399934
-8.06582e-06
0.0399941
-9.25215e-06
0.0399926
-9.98064e-06
0.0399906
-6.17149e-06
0.0399884
2.58913e-07
0.0399939
1.3932e-06
0.039995
3.31328e-06
0.0399918
1.00971e-05
0.0399863
3.78186e-05
0.0399945
2.05628e-05
0.0400285
1.23612e-05
0.0399924
2.32489e-05
0.0399581
3.92598e-05
0.0399237
4.64044e-05
0.0399534
5.46561e-05
0.0399652
5.99654e-05
0.0400013
7.02259e-05
0.0399677
8.33329e-05
0.0399486
9.71164e-05
0.0399462
0.000111406
0.0399444
0.000125968
0.0399435
0.000140555
0.0399432
0.000154921
0.0399446
0.000168795
0.0399475
0.000180099
0.0399619
0.0001867
0.0399986
0.000196019
0.0399703
0.000205168
0.0399647
0.000212905
0.0399698
0.000218916
0.0399761
0.000224108
0.039982
0.000226456
0.0399901
0.000227019
0.039997
0.000225819
0.0400038
0.000222964
0.0400102
0.000216571
0.0400162
0.000212782
0.0400197
0.000205752
0.0400267
0.000197602
0.0400311
0.000188516
0.040035
0.000178637
0.0400363
0.000168082
0.0400411
0.000156974
0.0400434
0.000141455
0.0400493
0.000117606
0.0400728
0.000107527
0.0400819
9.91925e-05
0.0400508
8.87456e-05
0.0400475
8.62256e-05
0.040038
7.5655e-05
0.0400383
6.30508e-05
0.0400385
5.04354e-05
0.0400386
3.78196e-05
0.0400387
2.52073e-05
0.0400387
1.26004e-05
0.0400367
0.0400387
-2.92722e-06
0.0399982
-5.75976e-06
0.0399998
-6.42612e-06
0.039997
-1.08429e-05
0.0399978
-1.09223e-05
0.0399942
-1.25761e-05
0.0399942
-1.37125e-05
0.0399918
-1.42372e-05
0.0399889
-6.05322e-06
0.0399857
-3.06375e-06
0.039992
-1.17044e-06
0.0399899
1.7257e-06
0.0399834
1.1717e-05
0.0399846
8.90328e-06
0.0400314
1.33256e-05
0.039988
3.10426e-05
0.0399404
3.61105e-05
0.0399187
4.45437e-05
0.039945
5.63202e-05
0.0399534
6.33962e-05
0.0399942
7.56568e-05
0.0399555
9.09654e-05
0.0399333
0.000107147
0.03993
0.000123979
0.0399276
0.000141189
0.0399263
0.000158502
0.0399259
0.000175577
0.0399275
0.000191881
0.0399312
0.000206104
0.0399477
0.000214859
0.0399899
0.000226253
0.0399589
0.000237204
0.0399537
0.000246603
0.0399604
0.000253699
0.039969
0.000257448
0.0399782
0.000260187
0.0399874
0.000260768
0.0399965
0.000261268
0.0400033
0.000257814
0.0400136
0.000252568
0.0400214
0.000243666
0.0400286
0.000237337
0.040033
0.00022776
0.0400407
0.000217098
0.0400456
0.000203535
0.0400498
0.000193229
0.0400514
0.000178355
0.0400583
0.000151007
0.0400766
0.000117418
0.0401064
0.000129405
0.0400699
0.000117212
0.040063
0.000112955
0.0400518
9.86094e-05
0.0400523
8.42275e-05
0.0400527
6.9833e-05
0.0400529
5.54415e-05
0.040053
4.3065e-05
0.0400511
2.86985e-05
0.0400531
1.23405e-05
0.0400531
0.0400511
-3.6437e-06
0.0400018
-5.18165e-06
0.0400013
-1.05386e-05
0.0400023
-1.16192e-05
0.0399989
-1.63292e-05
0.0399989
-1.85676e-05
0.0399964
-1.82311e-05
0.0399914
-1.92128e-05
0.0399899
-1.94e-05
0.0399859
-8.67985e-06
0.0399813
-4.93518e-06
0.0399862
-4.04639e-06
0.0399825
2.10025e-06
0.0399784
1.76157e-05
0.0400158
2.05834e-05
0.039985
4.90546e-05
0.0399119
3.71608e-05
0.0399306
4.48766e-05
0.0399372
5.42177e-05
0.0399441
6.71321e-05
0.0399813
8.14992e-05
0.0399411
9.71731e-05
0.0399177
0.000115959
0.0399112
0.000135576
0.039908
0.000155736
0.0399062
0.000176052
0.0399055
0.00019636
0.0399072
0.000215655
0.0399119
0.000232503
0.0399308
0.000243877
0.0399785
0.000257813
0.0399449
0.000270781
0.0399408
0.000281403
0.0399498
0.000289924
0.0399605
0.000296453
0.0399717
0.000299571
0.0399843
0.000300131
0.0399959
0.000296242
0.0400072
0.00029407
0.0400158
0.000287808
0.0400277
0.000279687
0.0400367
0.000267908
0.0400448
0.000258706
0.0400499
0.000246325
0.040058
0.00023296
0.0400632
0.000216808
0.0400675
0.000200022
0.0400751
0.000174781
0.0401019
0.000159238
0.0401219
0.000149326
0.0400798
0.000143295
0.0400691
0.000127157
0.0400679
0.000110969
0.0400685
9.47678e-05
0.0400689
7.85772e-05
0.0400691
6.44141e-05
0.0400672
4.62722e-05
0.0400692
3.21647e-05
0.0400672
1.60737e-05
0.0400692
0.0400671
-4.47482e-06
0.0400063
-8.83486e-06
0.0400057
-1.09979e-05
0.0400045
-1.68649e-05
0.0400047
-1.83275e-05
0.0400004
-2.12806e-05
0.0399994
-2.36049e-05
0.0399938
-2.51807e-05
0.0399915
-2.58802e-05
0.0399866
-2.55706e-05
0.039981
-1.41205e-05
0.0399747
-9.38403e-06
0.0399778
-3.22839e-06
0.0399723
3.84677e-05
0.0399741
2.19161e-05
0.0400015
2.30989e-05
0.0399107
2.8157e-05
0.0399255
3.91378e-05
0.0399263
5.6054e-05
0.0399272
7.6877e-05
0.0399605
8.34998e-05
0.0399345
0.000101725
0.0398994
0.000123337
0.0398896
0.000146053
0.0398853
0.000169472
0.0398828
0.000193198
0.0398818
0.000216734
0.0398836
0.000239378
0.0398893
0.000259659
0.0399105
0.000274036
0.0399641
0.000290428
0.0399285
0.000305624
0.0399256
0.000318471
0.0399369
0.000327922
0.0399511
0.000333473
0.0399662
0.000336965
0.0399808
0.000339428
0.0399934
0.000337028
0.0400096
0.000329978
0.0400228
0.000324532
0.0400331
0.00031496
0.0400463
0.000303545
0.0400562
0.000290581
0.0400628
0.000276303
0.0400723
0.000260971
0.0400785
0.000240811
0.0400877
0.000204021
0.0401119
0.000174828
0.0401311
0.000183203
0.0401135
0.000175344
0.0400876
0.000159366
0.040085
0.000141327
0.040086
0.000123274
0.0400866
0.000107249
0.0400849
8.92546e-05
0.0400871
6.93166e-05
0.0400871
5.34348e-05
0.0400851
3.35886e-05
0.040087
1.77845e-05
0.040085
0.0400849
-5.42875e-06
0.0400118
-1.07343e-05
0.040011
-1.5832e-05
0.0400096
-1.86137e-05
0.0400075
-2.4969e-05
0.0400067
-2.67759e-05
0.0400012
-3.19094e-05
0.0399989
-3.22323e-05
0.0399918
-3.36066e-05
0.0399879
-3.38741e-05
0.0399812
-3.28787e-05
0.0399737
-2.04619e-05
0.0399654
-1.4444e-05
0.0399662
-6.67828e-07
0.0399604
1.50541e-05
0.0399858
8.82796e-06
0.0399169
1.87653e-05
0.0399156
3.49616e-05
0.0399101
5.7463e-05
0.0399047
0.000104223
0.0399137
9.72486e-05
0.0399414
0.000106263
0.0398904
0.000129005
0.0398669
0.000155145
0.0398591
0.000182252
0.0398556
0.000210012
0.0398541
0.000237242
0.0398564
0.000263968
0.0398626
0.000287748
0.0398868
0.000305522
0.0399464
0.000324948
0.0399091
0.000342937
0.0399076
0.000357378
0.0399225
0.000368705
0.0399397
0.000376948
0.0399579
0.000380738
0.039977
0.000378988
0.0399952
0.000377928
0.0400106
0.000371795
0.040029
0.000360928
0.040044
0.000351678
0.0400555
0.000338386
0.0400695
0.000321387
0.0400798
0.00030701
0.0400867
0.000287538
0.040098
0.000257203
0.040118
0.000214358
0.0401547
0.000212943
0.0401325
0.000213217
0.0401133
0.000195336
0.0401055
0.000175376
0.040105
0.000155396
0.040106
0.000135469
0.0401065
0.000115603
0.0401048
9.582e-05
0.0401069
7.81303e-05
0.0401048
5.85159e-05
0.0401047
3.89672e-05
0.0401066
1.94671e-05
0.0401045
0.0401044
-6.51352e-06
0.0400183
-1.28966e-05
0.0400174
-1.90644e-05
0.0400158
-2.49041e-05
0.0400134
-2.82962e-05
0.0400101
-3.31152e-05
0.040006
-3.72228e-05
0.040003
-4.04706e-05
0.0399951
-4.26993e-05
0.0399902
-4.37352e-05
0.0399823
-4.13941e-05
0.0399714
-3.94881e-05
0.0399635
-2.78179e-05
0.0399546
-1.81813e-05
0.0399507
2.35925e-05
0.039944
7.85235e-06
0.0399327
1.05866e-05
0.0399128
2.3947e-05
0.0398967
4.40313e-05
0.0398846
7.48471e-05
0.0398829
8.43943e-05
0.0399319
0.000104389
0.0398704
0.000132561
0.0398387
0.000162528
0.0398292
0.000193804
0.0398244
0.00022574
0.0398221
0.000257684
0.0398245
0.000288641
0.0398316
0.000316898
0.0398585
0.000338649
0.0399246
0.000361589
0.0398862
0.000382289
0.0398869
0.000399429
0.0399053
0.000412111
0.0399271
0.000419278
0.0399508
0.000425301
0.039971
0.000425176
0.0399953
0.000419186
0.0400166
0.000413698
0.0400345
0.000403121
0.0400546
0.000387885
0.0400708
0.000374429
0.0400829
0.000357166
0.0400971
0.000338436
0.0401054
0.000312591
0.0401239
0.000279954
0.0401507
0.000258718
0.0401759
0.000255098
0.0401361
0.000235206
0.0401332
0.000213225
0.0401275
0.000191235
0.040127
0.000169304
0.0401279
0.000149485
0.0401263
0.000125781
0.0401285
0.000106226
0.0401264
8.27886e-05
0.0401282
6.14753e-05
0.040126
4.22624e-05
0.0401258
2.11093e-05
0.0401256
0.0401255
-7.73605e-06
0.040026
-1.33335e-05
0.040023
-2.07161e-05
0.0400232
-2.77642e-05
0.0400204
-3.43553e-05
0.0400167
-4.03561e-05
0.040012
-4.56199e-05
0.0400083
-4.99857e-05
0.0399994
-5.32782e-05
0.0399935
-5.33027e-05
0.0399823
-5.58469e-05
0.0399739
-5.46891e-05
0.0399623
-4.959e-05
0.0399495
-3.43136e-05
0.0399355
-2.259e-05
0.0399323
-1.61332e-05
0.0399262
-4.8089e-06
0.0399015
1.15935e-05
0.0398803
3.12148e-05
0.039865
5.41292e-05
0.03986
7.43341e-05
0.0399117
0.000101557
0.0398432
0.000133526
0.0398067
0.00016781
0.0397949
0.000203807
0.0397884
0.000240812
0.0397851
0.000278136
0.0397871
0.000314315
0.0397954
0.000347353
0.0398255
0.000373752
0.0398982
0.000400738
0.0398592
0.000424982
0.0398626
0.000444524
0.0398858
0.000458965
0.0399126
0.00046901
0.0399407
0.000471139
0.0399689
0.000472402
0.039994
0.000467192
0.0400218
0.000455985
0.0400457
0.000445322
0.0400652
0.000429757
0.0400863
0.000411774
0.0401009
0.000391881
0.040117
0.000364514
0.0401327
0.000318078
0.0401703
0.000280981
0.0401878
0.00029324
0.0401637
0.000277172
0.0401522
0.00025302
0.0401573
0.00023087
0.0401496
0.000206826
0.040151
0.000182921
0.0401518
0.000159207
0.04015
0.000135694
0.040152
0.000112382
0.0401497
9.12621e-05
0.0401494
6.82942e-05
0.040149
4.54498e-05
0.0401486
2.26973e-05
0.0401484
0.0401482
-9.10132e-06
0.0400351
-1.80627e-05
0.0400319
-2.68089e-05
0.0400319
-3.52241e-05
0.0400288
-4.31833e-05
0.0400247
-5.05491e-05
0.0400194
-5.51667e-05
0.0400129
-6.08663e-05
0.0400051
-6.34516e-05
0.039996
-6.87178e-05
0.0399876
-6.84166e-05
0.0399736
-6.82863e-05
0.0399622
-6.60563e-05
0.0399472
-6.14134e-05
0.0399308
-4.60623e-05
0.039917
-3.5651e-05
0.0399158
-2.19474e-05
0.0398878
-4.66901e-06
0.039863
1.64008e-05
0.0398439
4.14006e-05
0.039835
6.64e-05
0.0398867
9.513e-05
0.0398145
0.000131302
0.0397705
0.000170452
0.0397557
0.000211888
0.0397469
0.000254721
0.0397423
0.000297959
0.0397439
0.000340412
0.039753
0.00037938
0.0397865
0.000411192
0.0398664
0.000442938
0.0398274
0.000470929
0.0398346
0.000493346
0.0398634
0.000509701
0.0398963
0.000520804
0.0399296
0.000524832
0.0399648
0.000521151
0.0399977
0.0005163
0.0400267
0.000504914
0.0400571
0.000489705
0.0400804
0.000471274
0.0401048
0.000450362
0.0401218
0.000425468
0.0401419
0.000383149
0.0401751
0.000329988
0.0402234
0.000334041
0.0401837
0.000323567
0.0401742
0.000297032
0.0401787
0.000274536
0.0401798
0.000246147
0.040178
0.000221998
0.0401752
0.00019613
0.0401777
0.000170544
0.0401756
0.000147257
0.0401753
0.000120228
0.0401768
9.54567e-05
0.0401741
7.0894e-05
0.0401735
4.85037e-05
0.040171
2.42153e-05
0.0401727
0.0401724
-8.60879e-06
0.0400437
-2.10827e-05
0.0400444
-3.13483e-05
0.0400422
-3.92934e-05
0.0400368
-4.87996e-05
0.0400342
-5.77227e-05
0.0400283
-6.59138e-05
0.0400211
-7.31828e-05
0.0400124
-7.93269e-05
0.0400022
-8.2112e-05
0.0399903
-8.72689e-05
0.0399788
-8.85006e-05
0.0399634
-8.54818e-05
0.0399442
-8.18424e-05
0.0399272
-7.3216e-05
0.0399083
-5.71833e-05
0.0398998
-4.53862e-05
0.039876
-2.54816e-05
0.0398431
-3.1252e-06
0.0398216
2.59089e-05
0.0398059
6.97191e-05
0.0398429
8.83015e-05
0.0397959
0.000125153
0.0397337
0.000169815
0.0397111
0.000217509
0.0396992
0.000267186
0.0396926
0.000317571
0.0396935
0.000367104
0.0397034
0.000413249
0.0397404
0.00045159
0.039828
0.000488969
0.0397901
0.000521493
0.0398021
0.000547459
0.0398374
0.000565818
0.0398779
0.000575479
0.0399199
0.000581091
0.0399592
0.000577998
0.0400008
0.000568936
0.0400357
0.000554786
0.0400712
0.000536372
0.0400989
0.000514569
0.0401266
0.000488156
0.0401482
0.000457839
0.0401722
0.000414231
0.0402187
0.000395872
0.0402418
0.000374763
0.0402048
0.000347599
0.0402013
0.000316562
0.0402098
0.00029153
0.0402048
0.000264885
0.0402047
0.000236625
0.0402035
0.000208787
0.0402055
0.000181363
0.0402031
0.000154328
0.0402023
0.000129683
0.0402014
0.000103339
0.0402005
7.72584e-05
0.0401996
4.93723e-05
0.0401989
2.56457e-05
0.0401964
0.0401981
-1.22655e-05
0.040056
-2.43942e-05
0.0400565
-3.43315e-05
0.0400521
-4.79816e-05
0.0400504
-5.72154e-05
0.0400434
-6.79051e-05
0.040039
-7.78901e-05
0.0400311
-8.69832e-05
0.0400215
-9.49675e-05
0.0400102
-0.000101585
0.039997
-0.000104557
0.0399817
-0.00010753
0.0399664
-0.000108123
0.0399448
-0.00010593
0.039925
-0.000100458
0.0399029
-9.12119e-05
0.0398905
-6.97661e-05
0.0398546
-5.35579e-05
0.0398269
-2.62017e-05
0.0397942
1.06904e-05
0.0397691
8.72168e-05
0.0397663
9.00016e-05
0.0397931
0.000116142
0.0397076
0.000165082
0.0396621
0.000220024
0.0396443
0.000277742
0.0396349
0.000336673
0.0396346
0.000395047
0.0396451
0.000449449
0.039686
0.000495565
0.0397819
0.000539698
0.0397459
0.000577749
0.0397641
0.000607339
0.0398078
0.000627846
0.0398574
0.000640056
0.0399077
0.00064079
0.0399585
0.00063762
0.040004
0.000623609
0.0400497
0.00060784
0.040087
0.000583434
0.0401233
0.000559567
0.0401504
0.000525067
0.0401827
0.000462841
0.0402344
0.000421679
0.0402598
0.000425509
0.040238
0.000405186
0.0402251
0.000373005
0.0402335
0.000341212
0.0402415
0.000309711
0.0402363
0.000280808
0.0402336
0.000248476
0.0402358
0.000220728
0.0402333
0.000191526
0.0402323
0.000162839
0.040231
0.000134616
0.0402296
0.00010679
0.0402283
8.13035e-05
0.0402251
5.40527e-05
0.0402262
2.69712e-05
0.0402235
0.040225
-1.40587e-05
0.04007
-2.79873e-05
0.0400705
-4.17541e-05
0.0400659
-5.3264e-05
0.0400619
-6.84192e-05
0.0400586
-7.90782e-05
0.0400497
-9.1097e-05
0.0400431
-0.000102285
0.0400327
-0.000112417
0.0400203
-0.000121226
0.0400058
-0.000128392
0.0399889
-0.000131542
0.0399695
-0.000136236
0.0399495
-0.000133991
0.0399227
-0.000130232
0.0398991
-0.000122325
0.0398826
-0.000109701
0.0398419
-8.37332e-05
0.0398009
-5.97173e-05
0.0397702
-2.71333e-05
0.0397365
2.43968e-05
0.0397148
5.53707e-05
0.0397621
9.7168e-05
0.0396658
0.000155227
0.0396041
0.000218617
0.0395809
0.00028582
0.0395677
0.00035497
0.0395654
0.000423677
0.0395764
0.000488531
0.0396211
0.000544099
0.0397264
0.000596323
0.0396937
0.000640795
0.0397196
0.000674495
0.0397741
0.000697422
0.0398345
0.000709827
0.0398953
0.000710972
0.0399573
0.000702845
0.0400121
0.000686755
0.0400658
0.000664345
0.0401094
0.000637079
0.0401505
0.000602219
0.0401853
0.000550911
0.040234
0.000484425
0.0403009
0.000480766
0.0402635
0.000464642
0.0402541
0.000430865
0.0402589
0.000393607
0.0402708
0.000360895
0.0402743
0.000328934
0.0402683
0.000293752
0.0402688
0.000263387
0.0402661
0.000231775
0.0402649
0.00020088
0.0402632
0.000170632
0.0402613
0.00014297
0.0402573
0.000113778
0.0402575
8.29649e-05
0.0402559
5.64744e-05
0.0402527
2.61574e-05
0.0402538
0.0402512
-1.59804e-05
0.040086
-2.98373e-05
0.0400843
-4.75797e-05
0.0400836
-6.31184e-05
0.0400775
-7.63632e-05
0.0400718
-9.321e-05
0.0400665
-0.000105495
0.0400554
-0.000119065
0.0400463
-0.000129671
0.0400309
-0.000141045
0.0400171
-0.000150839
0.0399987
-0.000158666
0.0399774
-0.000164017
0.0399549
-0.00016633
0.039925
-0.000164937
0.0398977
-0.000157081
0.0398748
-0.000146002
0.0398309
-0.00013085
0.0397858
-0.000100792
0.0397401
-6.69705e-05
0.0397026
-2.26883e-05
0.0396705
4.04669e-05
0.039699
7.86629e-05
0.0396276
0.000138936
0.0395438
0.0002122
0.0395076
0.000290744
0.0394891
0.000372252
0.0394839
0.000453927
0.0394947
0.000531175
0.0395439
0.00059845
0.0396591
0.000660594
0.0396316
0.000712458
0.0396677
0.000751522
0.0397351
0.000776657
0.0398093
0.000786476
0.0398855
0.000787005
0.0399568
0.000772501
0.0400266
0.00075305
0.0400853
0.000720619
0.0401418
0.000681199
0.04019
0.000638304
0.0402282
0.000589482
0.0402829
0.000559547
0.0403309
0.00053103
0.040292
0.000494889
0.0402902
0.000451464
0.0403024
0.000411053
0.0403112
0.000379342
0.040306
0.000342812
0.0403048
0.00030944
0.0403021
0.000275097
0.0403005
0.000241733
0.0402982
0.00020925
0.0402956
0.000179596
0.0402909
0.000146587
0.0402903
0.000118182
0.0402859
8.82226e-05
0.0402859
5.86096e-05
0.0402823
2.92259e-05
0.0402832
0.0402804
-1.80148e-05
0.040104
-3.59268e-05
0.0401022
-5.17597e-05
0.0400995
-6.94717e-05
0.0400952
-8.89932e-05
0.0400913
-0.000104216
0.0400817
-0.000121026
0.0400722
-0.000137253
0.0400625
-0.000152676
0.0400463
-0.000167018
0.0400315
-0.000179927
0.0400116
-0.000190968
0.0399884
-0.000197606
0.0399615
-0.000203185
0.0399306
-0.000202971
0.0398975
-0.000198059
0.0398699
-0.000191376
0.0398242
-0.00017597
0.0397704
-0.000152665
0.0397168
-0.000112329
0.0396623
-5.99105e-05
0.0396181
4.51263e-05
0.0395939
6.45318e-05
0.0396082
0.000116293
0.039492
0.000199185
0.0394248
0.000291308
0.039397
0.00038804
0.0393872
0.000485116
0.0393976
0.000578175
0.0394508
0.000659947
0.0395773
0.000734333
0.0395572
0.000795621
0.0396064
0.000840183
0.0396905
0.000867221
0.0397823
0.000877903
0.0398748
0.000872322
0.0399624
0.000853718
0.0400452
0.000820905
0.0401181
0.000770804
0.0401919
0.000705697
0.0402551
0.000641771
0.0402921
0.000598382
0.0403263
0.000600116
0.0403291
0.000564332
0.0403278
0.000519701
0.0403349
0.000474438
0.0403476
0.000434511
0.0403511
0.000396005
0.0403445
0.000359065
0.0403418
0.000321554
0.0403396
0.000285369
0.0403367
0.000250394
0.0403332
0.000218516
0.0403275
0.000183547
0.0403259
0.000153414
0.0403204
0.000119914
0.0403194
9.09755e-05
0.0403148
5.83994e-05
0.0403148
3.01173e-05
0.0403115
0.0403105
-2.01397e-05
0.0401242
-4.01995e-05
0.0401223
-6.0243e-05
0.0401195
-8.02588e-05
0.0401152
-9.8192e-05
0.0401093
-0.00011799
0.0401015
-0.000137546
0.0400917
-0.000156711
0.0400816
-0.000175305
0.0400649
-0.000193037
0.0400492
-0.000207561
0.0400261
-0.000222417
0.0400032
-0.000235064
0.0399741
-0.000244771
0.0399403
-0.000248707
0.0399014
-0.000241873
0.039863
-0.00024065
0.039823
-0.00023212
0.0397619
-0.000210705
0.0396954
-0.000178773
0.0396304
-0.000124829
0.0395642
-5.53483e-05
0.0395244
3.05357e-06
0.0395497
8.13557e-05
0.0394137
0.000177994
0.0393281
0.000286347
0.0392887
0.000401539
0.039272
0.000518668
0.0392805
0.000631299
0.0393382
0.000731848
0.0394768
0.000821436
0.0394676
0.000893641
0.0395342
0.000944921
0.0396392
0.00097371
0.0397535
0.000981293
0.0398672
0.000967242
0.0399764
0.00093763
0.0400748
0.000882963
0.0401728
0.000822761
0.0402521
0.000774224
0.0403036
0.0007077
0.0403586
0.000676205
0.0403578
0.000643176
0.0403621
0.000595872
0.0403751
0.000542509
0.0403882
0.000491294
0.0403988
0.000451821
0.0403906
0.000410522
0.0403858
0.000369246
0.040383
0.000329768
0.0403791
0.00029394
0.0403725
0.000257532
0.0403696
0.000222421
0.0403626
0.000188388
0.0403599
0.000155278
0.0403535
0.000124939
0.0403497
9.11599e-05
0.0403486
6.1856e-05
0.0403441
3.08267e-05
0.0403425
0.0403414
-2.23266e-05
0.0401465
-4.46023e-05
0.0401446
-6.69388e-05
0.0401418
-8.73456e-05
0.0401356
-0.000109834
0.0401318
-0.000132367
0.0401241
-0.000156888
0.0401163
-0.000177269
0.040102
-0.000199357
0.040087
-0.000218901
0.0400688
-0.000241573
0.0400488
-0.000258911
0.0400206
-0.000276316
0.0399915
-0.000291068
0.0399551
-0.000302176
0.0399125
-0.000304499
0.0398653
-0.00030635
0.0398248
-0.000298315
0.0397538
-0.000280449
0.0396775
-0.000250502
0.0396004
-0.000206187
0.0395199
-0.000135409
0.0394537
-5.03186e-05
0.0394647
3.13937e-05
0.039332
0.000144191
0.0392153
0.000272393
0.0391605
0.000409892
0.0391345
0.000551525
0.0391388
0.000690668
0.039199
0.000815649
0.0393518
0.00092264
0.0393606
0.00100899
0.0394479
0.00106771
0.0395805
0.0010973
0.0397239
0.00109822
0.0398663
0.00107622
0.0399984
0.00101902
0.040132
0.000949332
0.0402425
0.00089432
0.0403071
0.000843664
0.0403543
0.000788464
0.0404138
0.000736053
0.0404102
0.00067793
0.0404203
0.000620645
0.0404324
0.000564335
0.0404445
0.000514919
0.0404482
0.000468288
0.0404372
0.000424432
0.0404296
0.000381025
0.0404264
0.000339813
0.0404203
0.000300545
0.0404118
0.00026297
0.0404072
0.000226855
0.0403987
0.000193996
0.0403928
0.000158126
0.0403894
0.000125113
0.0403828
9.47688e-05
0.0403789
6.28965e-05
0.040376
3.13365e-05
0.040374
0.0403727
-2.454e-05
0.040171
-4.7055e-05
0.0401671
-7.1727e-05
0.0401665
-9.86156e-05
0.0401625
-0.000123747
0.0401569
-0.000149146
0.0401495
-0.00017279
0.0401399
-0.000198631
0.0401279
-0.000224528
0.0401129
-0.000250316
0.0400945
-0.000273657
0.0400721
-0.000300146
0.0400471
-0.000321189
0.0400126
-0.000341991
0.0399759
-0.000359575
0.0399301
-0.000370583
0.0398764
-0.000373354
0.0398276
-0.000375736
0.0397562
-0.000363453
0.0396652
-0.000337677
0.0395747
-0.000293202
0.0394754
-0.000222416
0.0393829
-9.49717e-05
0.0393372
-2.89416e-05