/*--------------------------------*- C++ -*----------------------------------*\
  =========                 |
  \\      /  F ield         | OpenFOAM: The Open Source CFD Toolbox
   \\    /   O peration     | Website:  https://openfoam.org
    \\  /    A nd           | Version:  12
     \\/     M anipulation  |
\*---------------------------------------------------------------------------*/
FoamFile
{
    format      ascii;
    class       volVectorField;
    location    "380";
    object      U;
}
// * * * * * * * * * * * * * * * * * * * * * * * * * * * * * * * * * * * * * //

dimensions      [0 1 -1 0 0 0 0];

internalField   nonuniform List<vector> 
16227
(
(2 -3.92986e-06 -1.04e-22)
(2 -1.17102e-05 1.04307e-22)
(2 -1.91924e-05 -1.04309e-22)
(2 -2.61873e-05 -1.04534e-22)
(2 -3.24937e-05 1.04536e-22)
(2 -3.79121e-05 1.04857e-22)
(2 -4.2251e-05 2.06521e-25)
(2 -4.53123e-05 -2.1029e-22)
(2 -4.69015e-05 3.16187e-22)
(2 -4.68357e-05 -2.10929e-22)
(2 -4.49408e-05 0)
(2 -4.10577e-05 2.1198e-22)
(2 -3.50192e-05 0)
(2 -2.66985e-05 0)
(2 -1.6e-05 0)
(2 -2.85735e-06 0)
(2 1.27544e-05 0)
(2 3.08146e-05 0)
(2 5.12507e-05 0)
(2 7.39359e-05 0)
(2 9.86818e-05 -2.07563e-22)
(2 0.00012524 1.8417e-24)
(2 0.000153304 2.05716e-22)
(2 0.000182506 0)
(2 0.000212432 -1.98019e-22)
(2 0.000242627 1.98017e-22)
(2 0.000272609 0)
(2 0.000301859 9.46041e-23)
(2 0.000329898 0)
(2 0.000356266 0)
(2 0.000380504 0)
(2 0.000402204 0)
(2 0.000420982 0)
(2 0.000436583 1.56352e-22)
(2 0.000448798 -5.84345e-24)
(2 0.000457512 -1.50506e-22)
(2 0.000462668 0)
(2 0.000464295 1.32551e-22)
(2 0.000462486 -5.97915e-24)
(2 0.000457391 -1.26572e-22)
(2 0.000449208 0)
(2 0.00043817 0)
(2 0.000424533 0)
(2 0.000408571 0)
(2 0.000390553 0)
(2 0.00037075 0)
(2 0.00034942 0)
(2 0.000326826 0)
(2 0.000303173 0)
(2 0.000278644 0)
(2 0.000253434 0)
(2 0.000227688 0)
(2 0.000201572 0)
(2 0.000175141 0)
(2 0.000148463 -2.98246e-23)
(2 0.000121608 2.98251e-23)
(2 9.46529e-05 0)
(2 6.76564e-05 0)
(2 4.06379e-05 0)
(2 1.35747e-05 2.7553e-23)
(2.00002 -8.24018e-06 7.99305e-26)
(2.00002 -2.44615e-05 0)
(2.00002 -3.94986e-05 0)
(2.00001 -5.26682e-05 0)
(2.00001 -6.32022e-05 -1.76813e-22)
(2.00001 -7.03592e-05 0)
(2.00001 -7.33977e-05 0)
(2 -7.15848e-05 -5.33669e-22)
(2 -6.42054e-05 3.55912e-22)
(2 -5.0575e-05 -7.14801e-22)
(1.99999 -3.00574e-05 2.86246e-21)
(1.99999 -2.05575e-06 -1.79084e-21)
(1.99998 3.39631e-05 8.97021e-22)
(1.99998 7.84642e-05 0)
(1.99997 0.000131774 0)
(1.99996 0.000194068 0)
(1.99996 0.000265387 0)
(1.99995 0.000345578 0)
(1.99995 0.000434299 0)
(1.99994 0.00053098 0)
(1.99994 0.000634822 0)
(1.99993 0.000744803 0)
(1.99993 0.000859672 0)
(1.99993 0.000977963 0)
(1.99993 0.00109803 0)
(1.99993 0.00121808 -3.29524e-22)
(1.99993 0.00133623 3.295e-22)
(1.99993 0.00145051 -1.5987e-22)
(1.99993 0.001559 0)
(1.99994 0.00165992 0)
(1.99994 0.00175149 0)
(1.99995 0.0018322 0)
(1.99996 0.0019007 0)
(1.99997 0.00195599 0)
(1.99998 0.00199732 0)
(1.99998 0.00202432 -2.44321e-22)
(1.99999 0.00203685 1.01919e-23)
(2 0.00203504 1.02095e-23)
(2.00001 0.00201938 1.01534e-23)
(2.00002 0.00199049 2.13767e-22)
(2.00002 0.00194923 1.9391e-22)
(2.00003 0.00189655 -1.93915e-22)
(2.00004 0.00183351 0)
(2.00004 0.00176125 0)
(2.00005 0.00168085 0)
(2.00005 0.0015934 0)
(2.00005 0.00149993 0)
(2.00006 0.00140146 0)
(2.00006 0.00129885 0)
(2.00006 0.00119288 0)
(2.00006 0.00108428 1.16746e-22)
(2.00006 0.000973596 -2.30432e-22)
(2.00006 0.000861449 -2.1488e-22)
(2.00007 0.000748176 2.14905e-22)
(2.00007 0.000633983 -2.00856e-22)
(2.00007 0.000519188 2.98637e-22)
(2.00007 0.000404058 -9.78182e-23)
(2.00007 0.000288742 4.71574e-23)
(2.00007 0.000173346 -4.71605e-23)
(2.00007 5.78485e-05 -3.45296e-25)
(2.00003 -9.72909e-06 1.75532e-22)
(2.00003 -2.86131e-05 0)
(2.00003 -4.54466e-05 0)
(2.00003 -5.90287e-05 0)
(2.00002 -6.80426e-05 1.76822e-22)
(2.00001 -7.11989e-05 -3.54526e-22)
(2 -6.72058e-05 -7.60102e-25)
(1.99999 -5.47894e-05 5.32883e-22)
(1.99998 -3.26996e-05 1.78174e-22)
(1.99997 2.60972e-07 7.15085e-22)
(1.99996 4.51956e-05 -7.1419e-22)
(1.99994 0.000103176 -1.43324e-21)
(1.99992 0.000175116 1.79939e-22)
(1.99991 0.000261776 0)
(1.99989 0.000363756 1.80142e-22)
(1.99987 0.000481383 0)
(1.99985 0.000614699 0)
(1.99984 0.000763439 0)
(1.99982 0.000926957 -7.13222e-22)
(1.99981 0.00110427 7.1309e-22)
(1.99979 0.00129385 -3.52173e-22)
(1.99978 0.00149395 3.52138e-22)
(1.99977 0.0017023 0)
(1.99977 0.00191626 -3.4107e-22)
(1.99977 0.00213286 4.95033e-24)
(1.99977 0.00234888 3.36045e-22)
(1.99977 0.00256094 0)
(1.99978 0.00276549 0)
(1.99979 0.00295911 0)
(1.99981 0.00313851 0)
(1.99983 0.00330052 1.43922e-22)
(1.99985 0.00344244 -2.92934e-22)
(1.99988 0.00356191 0)
(1.9999 0.00365717 0)
(1.99993 0.00372691 2.5451e-22)
(1.99996 0.00377049 -2.54495e-22)
(1.99999 0.00378771 0)
(2.00002 0.00377893 0)
(2.00004 0.00374501 0)
(2.00007 0.00368715 0)
(2.00009 0.00360694 0)
(2.00011 0.00350616 0)
(2.00013 0.00338678 -8.92397e-23)
(2.00015 0.00325085 0)
(2.00016 0.00310034 0)
(2.00018 0.00293723 0)
(2.00019 0.00276347 -6.90298e-23)
(2.0002 0.00258082 1.41104e-22)
(2.0002 0.00239083 0)
(2.00021 0.00219498 6.17197e-23)
(2.00021 0.00199449 0)
(2.00022 0.00179046 1.13627e-22)
(2.00022 0.00158385 2.12956e-22)
(2.00022 0.00137525 4.42067e-23)
(2.00022 0.00116511 -2.05358e-22)
(2.00022 0.000954044 9.68161e-23)
(2.00022 0.000742435 -9.68557e-23)
(2.00022 0.00053048 0)
(2.00022 0.000318415 0)
(2.00022 0.000106177 -4.61721e-23)
(2.00006 -1.28245e-05 0)
(2.00005 -3.74523e-05 0)
(2.00005 -5.92325e-05 -1.7603e-22)
(2.00004 -7.6433e-05 0)
(2.00003 -8.72124e-05 -1.7684e-22)
(2.00001 -8.97453e-05 1.7684e-22)
(1.99999 -8.2198e-05 0)
(1.99997 -6.27547e-05 -5.34161e-22)
(1.99995 -2.96301e-05 5.33689e-22)
(1.99992 1.89178e-05 0)
(1.99989 8.44846e-05 -7.17222e-22)
(1.99986 0.000168632 -2.15599e-21)
(1.99983 0.000272738 -3.59495e-22)
(1.99979 0.00039784 0)
(1.99976 0.000544908 -1.80164e-22)
(1.99972 0.000714446 0)
(1.99968 0.000906617 0)
(1.99965 0.00112107 1.43709e-21)
(1.99961 0.00135696 -1.43674e-21)
(1.99958 0.00161289 0)
(1.99956 0.00188679 -3.53669e-22)
(1.99953 0.00217606 2.95746e-24)
(1.99952 0.00247749 3.59351e-24)
(1.99951 0.00278723 3.47021e-22)
(1.9995 0.00310101 0)
(1.99951 0.0034141 0)
(1.99952 0.00372156 0)
(1.99954 0.00401821 1.59349e-22)
(1.99957 0.00429898 -1.27061e-24)
(1.9996 0.00455908 1.51331e-22)
(1.99965 0.00479383 -2.45281e-24)
(1.99969 0.00499919 0)
(1.99975 0.00517176 0)
(1.9998 0.00530891 0)
(1.99986 0.00540882 -2.54804e-22)
(1.99992 0.00547048 1.04177e-23)
(1.99998 0.00549371 1.05074e-23)
(2.00004 0.00547916 1.05153e-23)
(2.0001 0.00542807 4.36217e-22)
(2.00015 0.00534222 -2.12879e-22)
(2.0002 0.00522401 0)
(2.00025 0.00507611 -9.34886e-23)
(2.00029 0.00490141 8.91757e-23)
(2.00032 0.00470286 0)
(2.00035 0.00448346 0)
(2.00038 0.00424612 0)
(2.0004 0.0039936 -7.20131e-23)
(2.00042 0.00372847 0)
(2.00044 0.003453 0)
(2.00045 0.00316929 -1.22471e-22)
(2.00046 0.00287914 -2.28335e-22)
(2.00047 0.00258406 4.46757e-22)
(2.00047 0.00228551 -2.18508e-22)
(2.00047 0.00198402 -2.53914e-22)
(2.00048 0.0016806 2.02118e-22)
(2.00048 0.00137602 0)
(2.00048 0.00107076 0)
(2.00048 0.000764994 4.55892e-23)
(2.00048 0.000459144 0)
(2.00048 0.000153028 0)
(2.00009 -1.86405e-05 0)
(2.00008 -5.44018e-05 0)
(2.00007 -8.65483e-05 2.72438e-25)
(2.00006 -0.000112805 0)
(2.00004 -0.000130821 0)
(2.00001 -0.000138219 -3.53874e-22)
(1.99998 -0.000132628 -5.3302e-22)
(1.99994 -0.000111675 5.32156e-22)
(1.9999 -7.30125e-05 0)
(1.99986 -1.4317e-05 0)
(1.99981 6.65564e-05 -7.18118e-22)
(1.99975 0.000171678 4.31016e-21)
(1.9997 0.000303056 -3.5902e-22)
(1.99964 0.00046194 3.60846e-22)
(1.99957 0.000649823 0)
(1.99951 0.000867458 0)
(1.99945 0.00111518 7.23474e-22)
(1.99939 0.00139269 2.17099e-21)
(1.99933 0.00169902 -1.082e-21)
(1.99928 0.0020324 0)
(1.99923 0.00239038 0)
(1.99919 0.00276936 0)
(1.99916 0.00316523 0)
(1.99914 0.00357293 -3.45195e-22)
(1.99914 0.0039868 4.92005e-24)
(1.99915 0.00440051 5.64798e-24)
(1.99917 0.00480743 3.34413e-22)
(1.9992 0.00520059 1.63056e-22)
(1.99925 0.00557315 -1.46699e-24)
(1.99932 0.00591862 -1.56417e-22)
(1.99939 0.00623064 4.46279e-22)
(1.99947 0.00650371 -2.95579e-22)
(1.99957 0.00673326 -2.76141e-22)
(1.99967 0.00691581 2.76101e-22)
(1.99977 0.00704885 2.55264e-22)
(1.99987 0.00713109 -2.55237e-22)
(1.99998 0.00716231 0)
(2.00008 0.00714344 0)
(2.00018 0.00707626 -2.12215e-22)
(2.00027 0.00696324 2.12216e-22)
(2.00036 0.00680762 1.91369e-22)
(2.00043 0.0066131 -9.79564e-23)
(2.0005 0.00638353 0)
(2.00056 0.00612286 0)
(2.00062 0.0058352 0)
(2.00066 0.00552435 0)
(2.0007 0.00519398 0)
(2.00073 0.00484751 0)
(2.00076 0.00448792 -6.28001e-23)
(2.00078 0.0041179 -2.9344e-22)
(2.0008 0.00373986 2.35077e-22)
(2.00081 0.00335577 2.13989e-22)
(2.00082 0.00296735 -3.17313e-22)
(2.00082 0.00257529 1.97586e-22)
(2.00083 0.00218108 -1.97614e-22)
(2.00083 0.00178558 0)
(2.00083 0.00138934 0)
(2.00083 0.000992509 -1.26619e-24)
(2.00083 0.000595654 0)
(2.00083 0.000198467 0)
(2.00013 -2.69601e-05 -1.74507e-22)
(2.00012 -7.88652e-05 0)
(2.00011 -0.000126404 1.61155e-26)
(2.00008 -0.000166763 1.75749e-22)
(2.00005 -0.000197079 0)
(2.00001 -0.000214423 2.26585e-25)
(1.99997 -0.000215871 -3.54918e-22)
(1.99991 -0.000198474 3.54818e-22)
(1.99985 -0.000159305 0)
(1.99978 -9.54101e-05 0)
(1.99971 -4.02663e-06 3.59228e-22)
(1.99963 0.000117414 1.44133e-21)
(1.99954 0.000271742 -7.21168e-22)
(1.99945 0.000460582 3.62855e-22)
(1.99935 0.000685835 0)
(1.99925 0.000948712 -3.63741e-22)
(1.99916 0.0012498 3.63742e-22)
(1.99906 0.00158897 2.8723e-24)
(1.99897 0.00196517 -1.63208e-21)
(1.99889 0.00237642 -3.60542e-22)
(1.99882 0.00281997 3.63532e-22)
(1.99876 0.00329106 2.67984e-24)
(1.99871 0.00378481 3.55946e-22)
(1.99868 0.00429485 0)
(1.99867 0.00481396 0)
(1.99868 0.00533414 0)
(1.99872 0.00584683 0)
(1.99877 0.00634311 -1.63015e-22)
(1.99885 0.00681409 0)
(1.99894 0.00725138 0)
(1.99906 0.00764679 4.5096e-22)
(1.99919 0.00799304 -2.97659e-22)
(1.99933 0.00828427 0)
(1.99949 0.00851605 0)
(1.99965 0.00868517 0)
(1.99981 0.00879003 0)
(1.99997 0.00883045 2.33598e-22)
(2.00013 0.00880764 -1.11492e-23)
(2.00028 0.00872411 -3.30674e-22)
(2.00042 0.00858317 0)
(2.00055 0.00838901 0)
(2.00067 0.00814642 1.79667e-22)
(2.00078 0.00786041 -2.66478e-22)
(2.00087 0.00753614 0)
(2.00095 0.00717878 0)
(2.00102 0.00679319 0)
(2.00108 0.00638398 0)
(2.00113 0.00595544 0)
(2.00117 0.00551128 1.83724e-22)
(2.0012 0.00505487 4.57084e-22)
(2.00122 0.00458912 -4.59042e-22)
(2.00124 0.00411656 2.08347e-22)
(2.00125 0.0036387 -1.05182e-22)
(2.00126 0.00315701 0)
(2.00127 0.00267322 4.62499e-23)
(2.00127 0.00218814 0)
(2.00127 0.00170228 0)
(2.00128 0.00121594 -4.42998e-23)
(2.00128 0.000729685 0)
(2.00128 0.000243082 4.1737e-23)
(2.00019 -3.76818e-05 4.82608e-25)
(2.00018 -0.000110562 0)
(2.00016 -0.000178336 0)
(2.00013 -0.000237672 -1.75283e-22)
(2.00008 -0.000285186 0)
(2.00003 -0.000317407 1.76542e-22)
(1.99996 -0.000330832 -1.77306e-22)
(1.99989 -0.000321923 3.54837e-22)
(1.9998 -0.000287148 0)
(1.9997 -0.000222887 -7.17519e-22)
(1.9996 -0.00012564 3.58239e-22)
(1.99948 7.69115e-06 4.11678e-24)
(1.99936 0.000180745 1.45494e-21)
(1.99922 0.000396014 -7.26771e-22)
(1.99909 0.000655471 -9.62433e-25)
(1.99895 0.000961105 -1.8319e-22)
(1.99881 0.0013138 3.66124e-21)
(1.99867 0.00171394 -1.46463e-21)
(1.99854 0.00216045 -2.37593e-21)
(1.99842 0.00265107 3.29664e-21)
(1.99832 0.00318303 3.67613e-22)
(1.99823 0.00375014 -3.59726e-22)
(1.99816 0.00434693 3.22847e-24)
(1.99811 0.00496551 3.56305e-22)
(1.9981 0.00559709 0)
(1.99811 0.00623171 0)
(1.99816 0.00685868 0)
(1.99824 0.00746681 0)
(1.99834 0.00804489 1.6271e-22)
(1.99848 0.00858234 0)
(1.99865 0.00906878 -4.57305e-22)
(1.99884 0.00949494 0)
(1.99904 0.0098535 2.79311e-22)
(1.99927 0.0101388 -2.79238e-22)
(1.9995 0.010347 2.56706e-22)
(1.99973 0.0104763 -1.15558e-23)
(1.99996 0.0105264 -4.78524e-22)
(2.00019 0.0104991 2.33423e-22)
(2.0004 0.0103977 -1.02169e-22)
(2.00061 0.0102266 2.10344e-22)
(2.00079 0.00999109 9.63242e-23)
(2.00096 0.00969734 0)
(2.00111 0.00935166 8.67202e-23)
(2.00125 0.00896058 0)
(2.00136 0.00853041 0)
(2.00146 0.00806726 7.12676e-23)
(2.00154 0.00757669 -6.70632e-23)
(2.00161 0.00706393 0)
(2.00166 0.00653336 7.08953e-22)
(2.0017 0.00598913 4.20534e-22)
(2.00173 0.00543473 -8.91819e-22)
(2.00176 0.00487299 -2.01543e-22)
(2.00178 0.00430533 4.42495e-22)
(2.00179 0.00373419 -1.92734e-22)
(2.0018 0.00316111 -4.62313e-23)
(2.0018 0.00258686 0)
(2.0018 0.00201204 8.40631e-23)
(2.00181 0.001437 -4.23225e-23)
(2.00181 0.000862253 0)
(2.00181 0.00028722 -1.84322e-24)
(2.00028 -5.08719e-05 1.74034e-22)
(2.00026 -0.000149696 0)
(2.00024 -0.000242705 0)
(2.00019 -0.000326057 1.74772e-22)
(2.00013 -0.000395849 -5.11941e-25)
(2.00006 -0.000448087 1.75795e-22)
(1.99997 -0.000478667 -1.7657e-22)
(1.99987 -0.000483438 -5.333e-22)
(1.99975 -0.000458223 3.55734e-22)
(1.99962 -0.000398736 -7.18275e-22)
(1.99948 -0.000300617 -1.83627e-22)
(1.99932 -0.000160059 1.08396e-21)
(1.99915 2.7118e-05 -2.90103e-21)
(1.99897 0.000264812 -1.46141e-21)
(1.99879 0.000555437 1.46302e-21)
(1.9986 0.000901312 -1.83415e-22)
(1.99841 0.0013041 4.44085e-21)
(1.99822 0.00176458 -7.37254e-22)
(1.99804 0.00228227 -7.33707e-22)
(1.99787 0.00285446 -2.19398e-21)
(1.99772 0.00347854 3.73996e-22)
(1.99759 0.00414688 0)
(1.9975 0.00485337 0)
(1.99743 0.00558853 -3.57052e-22)
(1.99741 0.00634184 4.79992e-24)
(1.99742 0.00710109 3.51994e-22)
(1.99748 0.00785317 0)
(1.99759 0.00858423 3.31727e-22)
(1.99773 0.00928034 -4.94177e-22)
(1.99792 0.00992837 0)
(1.99815 0.0105153 1.46129e-22)
(1.99841 0.0110296 -5.96277e-22)
(1.99869 0.0114621 1.12265e-23)
(1.99899 0.0118061 5.51106e-22)
(1.99931 0.0120567 -1.19546e-23)
(1.99963 0.0122118 -2.57623e-22)
(1.99995 0.0122715 0)
(2.00026 0.0122382 2.21082e-22)
(2.00055 0.0121163 -1.19693e-23)
(2.00083 0.0119113 -2.09092e-22)
(2.00108 0.0116302 -1.91507e-22)
(2.00131 0.0112808 0)
(2.00151 0.0108706 0)
(2.00169 0.010408 -7.89047e-23)
(2.00185 0.00990054 0)
(2.00197 0.00935562 -1.40605e-22)
(2.00208 0.00877997 6.70093e-23)
(2.00217 0.00817971 -1.2226e-22)
(2.00224 0.00756007 -6.97658e-22)
(2.00229 0.00692572 -4.29748e-22)
(2.00234 0.00628112 2.24795e-22)
(2.00237 0.00562847 -1.01905e-23)
(2.00239 0.00497028 -2.87927e-22)
(2.0024 0.00430929 9.01451e-23)
(2.00241 0.00364663 0)
(2.00242 0.00298327 0)
(2.00242 0.00231978 -2.1499e-24)
(2.00242 0.0016565 0)
(2.00242 0.000993848 0)
(2.00242 0.000331034 -3.98737e-23)
(2.0004 -6.66557e-05 0)
(2.00038 -0.000196633 0)
(2.00034 -0.000320114 1.73722e-22)
(2.00028 -0.000432788 -1.74761e-22)
(2.00021 -0.000530247 0)
(2.00011 -0.000607971 -3.51391e-22)
(2 -0.000661271 1.75759e-22)
(1.99987 -0.00068535 1.76821e-22)
(1.99972 -0.000675325 0)
(1.99955 -0.000626224 0)
(1.99936 -0.000532808 -5.42944e-22)
(1.99915 -0.000390262 3.6095e-22)
(1.99893 -0.000193876 1.46283e-21)
(1.9987 6.16344e-05 4.41386e-21)
(1.99845 0.000379814 0)
(1.9982 0.000762881 -7.43832e-22)
(1.99795 0.00121405 -2.96463e-21)
(1.9977 0.00173423 -7.49369e-22)
(1.99746 0.00232407 -1.48834e-21)
(1.99723 0.00298048 3.72982e-22)
(1.99703 0.00370125 -7.38369e-22)
(1.99685 0.00447716 1.89474e-24)
(1.99672 0.00530148 2.77494e-24)
(1.99663 0.00616318 3.6648e-22)
(1.99659 0.0070496 0)
(1.9966 0.00794609 0)
(1.99667 0.00883669 0)
(1.99681 0.00970441 1.72203e-22)
(1.997 0.0105321 -1.6782e-22)
(1.99725 0.0113036 0)
(1.99755 0.0120027 3.02725e-22)
(1.99789 0.012615 -3.07332e-22)
(1.99827 0.0131294 0)
(1.99867 0.0135378 0)
(1.99909 0.0138342 3.91955e-22)
(1.99951 0.0140164 -2.58771e-22)
(1.99994 0.014085 -2.33008e-22)
(2.00034 0.0140432 4.53148e-22)
(2.00073 0.0138966 -2.20145e-22)
(2.00109 0.0136527 0)
(2.00142 0.0133202 2.78625e-22)
(2.00172 0.0129086 -1.83459e-22)
(2.00199 0.0124277 -8.23587e-23)
(2.00222 0.0118872 1.55818e-22)
(2.00241 0.0112966 0)
(2.00258 0.0106645 6.93388e-23)
(2.00271 0.00999886 -1.25649e-22)
(2.00282 0.00930682 1.22153e-22)
(2.00291 0.00859447 -4.14781e-22)
(2.00298 0.00786723 2.5339e-22)
(2.00303 0.00712997 1.05488e-22)
(2.00307 0.00638462 4.60569e-23)
(2.00309 0.00563489 -4.6073e-23)
(2.00311 0.00488309 -4.39521e-23)
(2.00312 0.00413039 8.00296e-23)
(2.00313 0.00337779 -1.32472e-24)
(2.00313 0.0026258 -7.85713e-23)
(2.00313 0.00187465 3.62508e-23)
(2.00313 0.00112455 0)
(2.00313 0.000374522 0)
(2.00054 -8.51955e-05 0)
(2.00052 -0.000251847 0)
(2.00047 -0.000411381 -3.46608e-22)
(2.0004 -0.000559054 0)
(2.00031 -0.00068997 0)
(2.00019 -0.000799117 5.85905e-25)
(2.00005 -0.000881224 0)
(1.99989 -0.00093082 -1.77464e-22)
(1.9997 -0.000942281 -1.79012e-22)
(1.99948 -0.000909882 1.78611e-22)
(1.99924 -0.000827513 -7.24267e-22)
(1.99898 -0.000689123 7.24403e-22)
(1.9987 -0.00048918 0)
(1.9984 -0.000221392 -4.39906e-21)
(1.99809 0.000119802 -7.3484e-22)
(1.99777 0.00053621 7.50094e-22)
(1.99744 0.0010333 -4.50343e-21)
(1.99711 0.00161254 1.50411e-21)
(1.99679 0.0022755 -7.54238e-22)
(1.9965 0.00301893 0)
(1.99623 0.00384151 -7.61617e-22)
(1.99599 0.00473238 0)
(1.99581 0.00568429 -3.73151e-22)
(1.99568 0.00668435 3.72993e-22)
(1.99562 0.00771771 -3.64703e-22)
(1.99563 0.00876676 1.81576e-22)
(1.99572 0.00981225 0)
(1.99589 0.0108335 -1.72197e-22)
(1.99613 0.0118093 5.10023e-22)
(1.99645 0.0127199 1.65847e-22)
(1.99684 0.0135453 -3.17446e-22)
(1.99728 0.0142676 -1.42314e-22)
(1.99777 0.0148735 2.99743e-22)
(1.99829 0.0153527 0)
(1.99883 0.0156987 1.27157e-22)
(1.99938 0.0159089 -1.36624e-23)
(1.99992 0.0159846 -1.36734e-23)
(2.00045 0.0159303 -2.32594e-22)
(2.00094 0.0157535 2.05745e-22)
(2.0014 0.0154638 -3.0469e-22)
(2.00183 0.015072 9.24595e-23)
(2.0022 0.0145902 0)
(2.00254 0.0140303 8.22806e-23)
(2.00282 0.0134042 -7.6911e-23)
(2.00307 0.0127231 0)
(2.00327 0.0119972 0)
(2.00344 0.0112358 1.25535e-22)
(2.00357 0.010447 -3.71613e-24)
(2.00368 0.00963766 -2.86541e-23)
(2.00376 0.00881451 4.09877e-22)
(2.00382 0.00798128 9.72428e-23)
(2.00386 0.00714139 4.31447e-23)
(2.00389 0.00629869 4.11845e-23)
(2.00391 0.00545511 -1.93011e-24)
(2.00392 0.00461188 -4.20562e-23)
(2.00392 0.00376999 0)
(2.00392 0.0029297 0)
(2.00392 0.00209109 -6.97241e-23)
(2.00392 0.00125418 0)
(2.00392 0.000417648 0)
(2.00073 -0.000106688 0)
(2.0007 -0.00031593 0)
(2.00065 -0.000517494 1.84813e-25)
(2.00056 -0.000706294 1.72684e-22)
(2.00045 -0.000876956 0)
(2.00031 -0.00102402 1.74743e-22)
(2.00013 -0.00114165 1.75956e-22)
(1.99993 -0.00122371 1.17047e-24)
(1.9997 -0.00126379 7.30783e-25)
(1.99943 -0.00125532 -1.79833e-22)
(1.99914 -0.0011913 1.79863e-22)
(1.99882 -0.00106438 1.82291e-22)
(1.99847 -0.000867778 -3.68028e-22)
(1.99809 -0.000594528 -2.96902e-21)
(1.9977 -0.000236254 -7.54367e-22)
(1.99729 0.000209481 3.00253e-21)
(1.99687 0.000748915 2.26996e-21)
(1.99646 0.00138563 -1.52475e-21)
(1.99605 0.00212211 1.53088e-21)
(1.99566 0.0029553 2.3276e-21)
(1.99531 0.00388537 3.77994e-22)
(1.99501 0.0048995 -3.65446e-24)
(1.99476 0.00599021 -3.80764e-22)
(1.99459 0.00714262 7.57952e-22)
(1.9945 0.00833941 -3.77165e-22)
(1.9945 0.00955954 1.82987e-22)
(1.99461 0.0107798 0)
(1.99481 0.011975 1.79833e-22)
(1.99511 0.0131192 1.78097e-22)
(1.99551 0.0141882 -1.71235e-22)
(1.996 0.0151569 1.55981e-22)
(1.99656 0.0160037 1.54248e-22)
(1.99718 0.0167121 1.40623e-22)
(1.99785 0.0172698 -2.9043e-22)
(1.99853 0.0176692 0)
(1.99923 0.0179077 -2.46869e-22)
(1.99992 0.0179876 1.46222e-23)
(2.00058 0.0179152 2.32067e-22)
(2.0012 0.0177004 -2.03517e-22)
(2.00178 0.0173557 1.4958e-23)
(2.0023 0.0168949 6.83224e-24)
(2.00276 0.0163327 -2.4849e-22)
(2.00317 0.0156838 1.64402e-22)
(2.00352 0.0149625 -7.21557e-23)
(2.00382 0.0141822 -6.67715e-23)
(2.00407 0.0133546 -2.44108e-22)
(2.00426 0.0124906 6.97662e-22)
(2.00442 0.0115991 -5.77661e-25)
(2.00455 0.0106879 8.43531e-22)
(2.00464 0.0097653 2.74884e-22)
(2.0047 0.00883323 -4.8806e-23)
(2.00475 0.00789685 -8.61221e-23)
(2.00478 0.00695982 -3.82202e-23)
(2.0048 0.00602363 3.82373e-23)
(2.00481 0.00508963 -3.69118e-23)
(2.00481 0.00415851 -3.3434e-23)
(2.00481 0.0032304 3.34491e-23)
(2.0048 0.00230507 1.73375e-24)
(2.0048 0.00138224 3.17519e-23)
(2.0048 0.000460237 0)
(2.00097 -0.000131346 0)
(2.00093 -0.000389503 0)
(2.00086 -0.000639535 0)
(2.00076 -0.000876065 -1.72303e-22)
(2.00063 -0.00109333 1.72293e-22)
(2.00046 -0.00128545 -1.74141e-22)
(2.00025 -0.00144604 1.74142e-22)
(2.00001 -0.00156835 0)
(1.99973 -0.00164515 0)
(1.99941 -0.00166892 1.79784e-22)
(1.99905 -0.00163175 -3.6134e-22)
(1.99866 -0.00152492 -6.95951e-25)
(1.99823 -0.00134 7.39684e-22)
(1.99777 -0.00106921 2.2306e-21)
(1.99729 -0.000701623 1.51078e-21)
(1.99678 -0.000232185 -1.51383e-21)
(1.99626 0.000344686 -1.54148e-21)
(1.99574 0.001036 9.64365e-22)
(1.99522 0.0018454 -7.83815e-22)
(1.99473 0.00277038 5.44546e-23)
(1.99428 0.00381322 -1.56434e-21)
(1.99389 0.00496068 3.13674e-21)
(1.99357 0.00620318 -3.91106e-22)
(1.99333 0.00752439 0)
(1.9932 0.00890417 0)
(1.99319 0.0103177 0)
(1.9933 0.0117367 0)
(1.99355 0.0131309 -1.79858e-22)
(1.99392 0.0144683 1.83432e-22)
(1.99441 0.015719 -4.9413e-25)
(1.99502 0.0168521 0)
(1.99572 0.0178407 1.49514e-22)
(1.9965 0.0186648 -1.59483e-22)
(1.99733 0.0193096 1.44481e-22)
(1.9982 0.0197662 2.63254e-22)
(1.99906 0.0200323 -3.91008e-22)
(1.99992 0.0201119 -2.31443e-22)
(2.00074 0.0200136 1.19934e-22)
(2.00151 0.0197507 0)
(2.00221 0.0193392 9.74332e-23)
(2.00285 0.0187966 2.03527e-24)
(2.00342 0.0181413 2.38632e-24)
(2.00391 0.0173913 -7.51785e-23)
(2.00433 0.0165635 -1.33066e-22)
(2.00468 0.0156736 2.02701e-22)
(2.00496 0.0147354 -4.63115e-22)
(2.0052 0.0137607 4.63185e-22)
(2.00538 0.0127606 -8.47379e-22)
(2.00552 0.0117428 8.23187e-22)
(2.00562 0.0107163 -2.7464e-22)
(2.00569 0.00968246 0)
(2.00573 0.00864775 3.71407e-23)
(2.00576 0.00761509 -3.71587e-23)
(2.00578 0.00658577 0)
(2.00578 0.00556107 0)
(2.00578 0.00454128 0)
(2.00578 0.00352633 0)
(2.00577 0.00251542 0)
(2.00577 0.00150805 0)
(2.00576 0.000502039 0)
(2.00125 -0.000159377 0)
(2.00121 -0.000473186 0)
(2.00113 -0.000778549 0)
(2.00102 -0.00106993 0)
(2.00086 -0.0013412 0)
(2.00066 -0.00158618 1.73213e-22)
(2.00042 -0.00179797 -3.47737e-22)
(2.00013 -0.00196921 1.74549e-22)
(1.9998 -0.00209194 -1.77755e-22)
(1.99942 -0.00215755 -1.84215e-24)
(1.999 -0.00215707 1.79665e-22)
(1.99853 -0.00208054 0)
(1.99801 -0.00191748 -3.74831e-22)
(1.99746 -0.0016587 -1.13733e-21)
(1.99686 -0.00129184 7.59584e-21)
(1.99624 -0.000807064 -3.05195e-21)
(1.9956 -0.000198764 1.55267e-21)
(1.99496 0.000542825 2.79449e-24)
(1.99431 0.00142342 9.83971e-22)
(1.9937 0.00244196 -1.54689e-21)
(1.99313 0.0036027 -3.2309e-21)
(1.99262 0.00489395 1.8958e-23)
(1.9922 0.00630261 0)
(1.99189 0.00781164 -3.97133e-22)
(1.99171 0.00939774 3.97456e-24)
(1.99167 0.0110313 3.92591e-22)
(1.99179 0.0126784 0)
(1.99207 0.014302 0)
(1.99252 0.015863 -1.80036e-22)
(1.99313 0.0173242 -3.52132e-22)
(1.99388 0.0186472 3.30986e-22)
(1.99475 0.0197988 -1.7075e-22)
(1.99571 0.0207543 0)
(1.99675 0.0214958 -4.26701e-22)
(1.99781 0.0220134 1.44568e-22)
(1.99889 0.0223052 2.47013e-22)
(1.99994 0.0223775 -2.47472e-22)
(2.00094 0.0222426 1.11298e-22)
(2.00188 0.0219179 9.5624e-23)
(2.00273 0.0214243 -2.91219e-22)
(2.0035 0.0207842 2.42624e-24)
(2.00417 0.0200201 2.80739e-24)
(2.00475 0.0191542 7.50841e-23)
(2.00524 0.0182064 3.35542e-24)
(2.00565 0.017195 0)
(2.00598 0.016136 3.345e-24)
(2.00624 0.0150421 4.34592e-22)
(2.00644 0.013927 -7.31179e-22)
(2.00659 0.0127969 -1.91652e-23)
(2.0067 0.0116622 -4.21614e-23)
(2.00677 0.0105241 0)
(2.00682 0.00938945 3.35029e-23)
(2.00684 0.00826032 -3.35207e-23)
(2.00685 0.00713785 0)
(2.00685 0.00602305 0)
(2.00684 0.00491567 0)
(2.00683 0.00381529 2.57246e-23)
(2.00682 0.0027206 -2.57371e-23)
(2.00682 0.00163068 0)
(2.00681 0.000542739 0)
(2.0016 -0.000190958 0)
(2.00155 -0.000567488 0)
(2.00146 -0.000935451 0)
(2.00133 -0.00128923 0)
(2.00115 -0.00162249 0)
(2.00092 -0.00192877 -1.72075e-22)
(2.00064 -0.0022008 3.45617e-22)
(2.00031 -0.00243065 1.70402e-24)
(1.99992 -0.00260963 1.90924e-24)
(1.99948 -0.00272807 1.81422e-22)
(1.99898 -0.00277579 -5.40347e-22)
(1.99842 -0.00274151 -2.4268e-24)
(1.99781 -0.00261264 1.84164e-22)
(1.99715 -0.00237779 -3.82479e-22)
(1.99644 -0.00202321 -2.27924e-21)
(1.99569 -0.00153431 -2.31785e-21)
(1.99491 -0.000903298 -4.49585e-25)
(1.99412 -0.000118313 1.94071e-22)
(1.99332 0.000829945 6.01212e-22)
(1.99256 0.00194293 -2.42555e-21)
(1.99184 0.0032263 -2.57286e-21)
(1.99119 0.00467196 -8.12175e-22)
(1.99065 0.0062628 0)
(1.99023 0.00798178 -4.09392e-22)
(1.98998 0.00980172 3.58978e-24)
(1.98991 0.0116875 4.05144e-22)
(1.99003 0.0135983 2.01554e-22)
(1.99036 0.0154889 0)
(1.99089 0.0173107 3.82132e-22)
(1.99163 0.019018 -5.45295e-22)
(1.99254 0.0205625 1.77364e-22)
(1.99361 0.0219028 -3.22631e-22)
(1.9948 0.0230084 4.68245e-22)
(1.99608 0.0238576 -1.84061e-23)
(1.99739 0.0244393 -1.48182e-22)
(1.9987 0.0247529 1.2828e-22)
(1.99998 0.0248076 0)
(2.0012 0.0246211 0)
(2.00233 0.0242166 -9.17615e-23)
(2.00335 0.0236214 1.95897e-22)
(2.00426 0.0228637 8.58713e-23)
(2.00505 0.0219718 3.30172e-24)
(2.00572 0.0209721 -1.36513e-22)
(2.00629 0.0198885 -1.78108e-22)
(2.00675 0.0187418 6.9089e-22)
(2.00712 0.0175502 -4.3759e-22)
(2.00741 0.0163282 1.83134e-22)
(2.00762 0.015091 5.47267e-22)
(2.00778 0.0138429 -5.92754e-22)
(2.00789 0.0125965 -7.61841e-23)
(2.00796 0.011352 0)
(2.008 0.0101162 -2.95238e-23)
(2.00802 0.00889024 2.95424e-23)
(2.00802 0.00767524 0)
(2.008 0.00647163 2.40743e-23)
(2.00799 0.00527847 -2.40872e-23)
(2.00797 0.00409491 0)
(2.00796 0.00291889 0)
(2.00795 0.00174905 0)
(2.00794 0.000581987 0)
(2.00201 -0.000226216 0)
(2.00196 -0.000672821 0)
(2.00186 -0.00111096 0)
(2.0017 -0.00153506 0)
(2.0015 -0.00193874 0)
(2.00124 -0.00231542 0)
(2.00092 -0.00265747 -1.72349e-22)
(2.00054 -0.00295656 -1.90382e-24)
(2.0001 -0.00320327 -1.78568e-22)
(1.99959 -0.00338702 1.74069e-22)
(1.99901 -0.00349622 -1.84052e-22)
(1.99837 -0.00351818 3.63017e-22)
(1.99765 -0.00343822 -3.74663e-22)
(1.99687 -0.00324207 -6.18712e-24)
(1.99602 -0.00291386 3.45579e-21)
(1.99513 -0.00243528 -7.8825e-22)
(1.99419 -0.00179372 -1.60362e-21)
(1.99323 -0.000975297 -2.0943e-22)
(1.99225 3.4331e-05 -1.10743e-23)
(1.9913 0.00124052 2.5085e-21)
(1.9904 0.00265049 -1.71276e-22)
(1.98959 0.00426139 -4.23794e-22)
(1.98889 0.00605228 6.39793e-22)
(1.98835 0.00800679 2.16097e-22)
(1.988 0.0100932 0)
(1.98787 0.0122701 2.12997e-22)
(1.98798 0.014488 -2.01693e-22)
(1.98835 0.0166918 3.95347e-22)
(1.98899 0.018821 -5.85851e-22)
(1.98987 0.0208185 5.51145e-22)
(1.99099 0.0226235 -1.83083e-22)
(1.9923 0.024184 3.3064e-22)
(1.99376 0.0254622 -1.71673e-22)
(1.99532 0.0264314 4.41239e-22)
(1.99692 0.0270794 -2.07805e-23)
(1.99852 0.0274075 -3.97565e-22)
(2.00007 0.02743 -2.27151e-22)
(2.00154 0.0271713 2.2701e-22)
(2.00288 0.0266631 0)
(2.00409 0.0259409 9.10907e-23)
(2.00515 0.0250407 -7.9402e-23)
(2.00607 0.0239974 -6.74506e-23)
(2.00684 0.0228426 8.4085e-24)
(2.00747 0.0216047 0)
(2.00799 0.020307 3.72927e-22)
(2.00839 0.0189708 -7.32792e-22)
(2.0087 0.0176119 -2.45067e-22)
(2.00893 0.016244 -8.25937e-23)
(2.00909 0.0148726 3.35816e-23)
(2.00919 0.0135114 -2.12303e-22)
(2.00925 0.0121584 8.84627e-23)
(2.00928 0.0108209 -2.76341e-23)
(2.00928 0.00949875 0)
(2.00927 0.00819268 0)
(2.00925 0.00690237 0)
(2.00922 0.00562598 -1.87602e-23)
(2.00919 0.0043622 9.02487e-25)
(2.00917 0.00310822 1.78805e-23)
(2.00915 0.00186194 0)
(2.00914 0.000619382 0)
(2.0025 -0.000265192 -1.63797e-22)
(2.00244 -0.000789351 1.64303e-22)
(2.00232 -0.00130542 0)
(2.00216 -0.00180802 -1.66324e-22)
(2.00193 -0.0022909 1.66299e-22)
(2.00164 -0.00274752 0)
(2.00128 -0.00317013 1.70895e-22)
(2.00085 -0.00354999 2.10999e-24)
(2.00035 -0.00387716 -3.4842e-22)
(1.99977 -0.00414016 -1.80766e-22)
(1.99911 -0.00432604 1.75199e-22)
(1.99837 -0.00442051 1.81114e-22)
(1.99754 -0.00440682 0)
(1.99663 -0.00426748 0)
(1.99564 -0.00398363 -3.75318e-22)
(1.99457 -0.00353317 -1.18793e-21)
(1.99345 -0.00289729 1.59825e-21)
(1.99229 -0.00205936 -1.24012e-21)
(1.99111 -0.000998549 -1.41557e-23)
(1.98994 0.000296263 1.74283e-21)
(1.98882 0.00183469 5.94987e-21)
(1.98779 0.00362141 -8.75209e-22)
(1.9869 0.00563241 6.67009e-22)
(1.98619 0.00785176 2.23442e-22)
(1.98571 0.0102432 0)
(1.9855 0.0127581 -2.1322e-22)
(1.9856 0.0153366 0)
(1.98601 0.0179109 2.05834e-22)
(1.98676 0.0204056 -6.83668e-24)
(1.98782 0.0227488 -7.85247e-22)
(1.98918 0.0248632 1.11694e-21)
(1.99077 0.0266832 -2.05922e-23)
(1.99256 0.0281607 -3.39306e-22)
(1.99446 0.0292635 2.98982e-24)
(1.99642 0.0299781 -1.28578e-22)
(1.99836 0.030309 3.99131e-22)
(2.00023 0.0302777 0)
(2.00197 0.0299188 0)
(2.00356 0.0292751 -1.82675e-22)
(2.00498 0.0283933 1.87778e-23)
(2.00621 0.0273192 3.18249e-22)
(2.00725 0.0260957 9.13988e-24)
(2.00812 0.024761 9.76009e-24)
(2.00882 0.0233476 4.16615e-22)
(2.00938 0.0218814 -2.28642e-21)
(2.00982 0.0203881 8.95004e-22)
(2.01014 0.0188807 1.63823e-22)
(2.01036 0.0173748 0)
(2.01052 0.0158761 0)
(2.01061 0.014397 1.17766e-22)
(2.01065 0.0129346 2.2862e-23)
(2.01066 0.0114957 -2.28765e-23)
(2.01064 0.0100789 0)
(2.01061 0.00868417 -1.68666e-23)
(2.01057 0.0073102 1.68772e-23)
(2.01053 0.00595425 0)
(2.01049 0.00461416 0)
(2.01046 0.00328637 1.29426e-23)
(2.01043 0.001968 -1.2951e-23)
(2.01042 0.000654482 0)
(2.00307 -0.000307878 0)
(2.003 -0.000917023 0)
(2.00288 -0.00151873 1.6315e-22)
(2.00269 -0.00210811 -1.63113e-22)
(2.00244 -0.0026792 0)
(2.00212 -0.00322565 0)
(2.00172 -0.00373987 -1.69137e-22)
(2.00125 -0.00421287 -2.31845e-24)
(2.00069 -0.00463434 3.45556e-22)
(2.00004 -0.00499203 -1.74119e-22)
(1.99929 -0.00527174 -3.6083e-22)
(1.99845 -0.00545748 1.7466e-22)
(1.9975 -0.00553035 3.68308e-22)
(1.99645 -0.00546953 -3.84599e-22)
(1.99529 -0.00525238 -2.34513e-21)
(1.99405 -0.00485243 3.93772e-22)
(1.99272 -0.00424385 -8.2513e-22)
(1.99133 -0.00340559 1.87785e-21)
(1.9899 -0.00230894 -8.45619e-22)
(1.98847 -0.000934921 -1.72529e-21)
(1.98709 0.000729723 -7.15841e-21)
(1.98579 0.00270015 1.44891e-20)
(1.98465 0.00495503 -4.47942e-22)
(1.98373 0.00747334 0)
(1.98308 0.0102156 0)
(1.98276 0.0131254 0)
(1.98282 0.0161301 0)
(1.98327 0.0191464 2.06442e-22)