/*--------------------------------*- C++ -*----------------------------------*\
  =========                 |
  \\      /  F ield         | OpenFOAM: The Open Source CFD Toolbox
   \\    /   O peration     | Website:  https://openfoam.org
    \\  /    A nd           | Version:  12
     \\/     M anipulation  |
\*---------------------------------------------------------------------------*/
FoamFile
{
    format      ascii;
    class       volScalarField;
    location    "280";
    object      k;
}
// * * * * * * * * * * * * * * * * * * * * * * * * * * * * * * * * * * * * * //

dimensions      [0 2 -2 0 0 0 0];

internalField   nonuniform List<scalar> 
16227
(
0.00914646
0.00914648
0.00914647
0.00914651
0.0091465
0.00914654
0.00914653
0.00914652
0.00914651
0.00914653
0.00914657
0.00914659
0.00914665
0.00914665
0.00914665
0.00914665
0.00914665
0.00914665
0.00914665
0.00914665
0.00914665
0.00914665
0.00914665
0.00914665
0.00914665
0.00914665
0.00914665
0.00914666
0.00914667
0.00914664
0.00914665
0.00914665
0.00914665
0.00914665
0.00914665
0.00914665
0.00914665
0.00914665
0.00914665
0.00914665
0.00914665
0.00914665
0.00914665
0.00914665
0.00914665
0.00914665
0.00914665
0.00914663
0.00914662
0.00914662
0.00914662
0.00914661
0.00914654
0.00914654
0.00914649
0.00914649
0.00914651
0.00914649
0.00914647
0.00914646
0.00848123
0.00848125
0.00848124
0.00848127
0.00848128
0.00848131
0.0084813
0.00848128
0.00848129
0.0084813
0.00848136
0.00848138
0.00848152
0.00848158
0.00848159
0.00848159
0.00848159
0.00848159
0.00848159
0.00848159
0.00848161
0.00848162
0.00848162
0.00848162
0.00848162
0.00848162
0.00848161
0.00848161
0.00848159
0.00848154
0.00848159
0.00848161
0.00848161
0.0084816
0.0084816
0.00848159
0.00848157
0.00848157
0.00848157
0.00848157
0.00848157
0.00848157
0.00848157
0.00848156
0.00848156
0.00848155
0.00848155
0.00848155
0.00848155
0.00848154
0.00848151
0.00848146
0.00848134
0.00848132
0.00848129
0.00848127
0.0084813
0.00848122
0.00848124
0.00848121
0.00790078
0.0079008
0.0079008
0.00790082
0.00790081
0.0079009
0.00790086
0.00790085
0.00790086
0.00790087
0.00790091
0.00790093
0.00790118
0.00790125
0.00790126
0.00790127
0.00790127
0.00790126
0.00790128
0.00790123
0.00790126
0.00790127
0.00790127
0.00790126
0.00790125
0.00790125
0.00790124
0.00790124
0.00790123
0.00790115
0.0079012
0.00790121
0.00790121
0.00790121
0.00790121
0.00790121
0.00790121
0.00790119
0.00790118
0.00790118
0.00790118
0.00790119
0.00790117
0.00790116
0.00790117
0.00790117
0.00790116
0.00790116
0.00790116
0.00790113
0.0079011
0.0079009
0.00790083
0.00790081
0.0079008
0.00790079
0.00790082
0.00790073
0.00790074
0.00790072
0.00739031
0.00739033
0.00739034
0.00739035
0.00739036
0.00739042
0.00739043
0.0073904
0.0073904
0.0073904
0.00739045
0.00739051
0.00739077
0.00739085
0.00739087
0.00739088
0.00739089
0.0073909
0.00739083
0.0073907
0.00739081
0.00739084
0.00739083
0.00739082
0.00739082
0.0073908
0.00739079
0.00739077
0.00739074
0.00739064
0.0073907
0.00739071
0.0073907
0.00739069
0.00739068
0.00739068
0.00739068
0.00739067
0.00739068
0.00739067
0.00739067
0.00739067
0.00739066
0.00739067
0.00739067
0.00739066
0.00739067
0.00739067
0.00739067
0.00739065
0.00739053
0.00739034
0.00739024
0.00739026
0.00739026
0.00739028
0.00739026
0.00739019
0.00739019
0.00739017
0.00693824
0.00693826
0.00693826
0.00693828
0.00693829
0.00693835
0.00693838
0.00693832
0.00693833
0.00693834
0.00693838
0.00693844
0.00693869
0.00693882
0.00693884
0.00693884
0.00693884
0.00693881
0.00693859
0.00693851
0.00693869
0.00693875
0.00693873
0.0069387
0.00693867
0.00693864
0.00693861
0.00693859
0.00693854
0.00693842
0.00693848
0.00693849
0.00693848
0.00693846
0.00693844
0.00693844
0.00693844
0.00693844
0.00693844
0.00693843
0.00693845
0.00693846
0.00693845
0.00693846
0.00693846
0.00693848
0.00693848
0.00693849
0.00693849
0.00693841
0.00693817
0.00693807
0.006938
0.00693803
0.00693806
0.00693811
0.00693805
0.00693798
0.00693798
0.00693796
0.00653535
0.00653537
0.00653537
0.00653539
0.00653539
0.00653544
0.00653549
0.00653544
0.00653543
0.00653543
0.00653544
0.00653548
0.0065356
0.00653589
0.00653595
0.00653596
0.00653595
0.00653584
0.00653559
0.00653553
0.00653573
0.00653577
0.00653573
0.00653568
0.00653564
0.0065356
0.00653555
0.00653549
0.00653542
0.00653529
0.00653534
0.00653533
0.00653531
0.00653529
0.00653528
0.00653527
0.00653527
0.00653527
0.00653527
0.00653528
0.00653529
0.0065353
0.00653531
0.00653534
0.00653535
0.00653536
0.00653538
0.00653539
0.0065354
0.00653527
0.00653504
0.00653493
0.00653491
0.00653496
0.00653502
0.00653501
0.00653496
0.0065349
0.00653491
0.00653489
0.00617424
0.00617426
0.00617426
0.00617427
0.00617428
0.00617432
0.00617437
0.00617436
0.00617432
0.00617432
0.00617431
0.00617431
0.00617442
0.00617468
0.00617482
0.00617483
0.00617478
0.00617448
0.00617434
0.00617431
0.0061745
0.00617451
0.00617445
0.00617438
0.00617431
0.00617424
0.00617416
0.00617409
0.006174
0.00617384
0.00617388
0.00617386
0.00617382
0.00617379
0.00617378
0.00617377
0.00617376
0.00617377
0.00617378
0.00617381
0.00617382
0.00617385
0.00617388
0.0061739
0.00617394
0.00617396
0.00617398
0.00617401
0.00617396
0.00617371
0.00617359
0.00617353
0.00617354
0.00617363
0.00617365
0.00617365
0.00617361
0.00617356
0.00617358
0.00617356
0.00584892
0.00584892
0.00584892
0.00584895
0.00584894
0.00584898
0.00584903
0.00584903
0.00584899
0.00584896
0.00584895
0.00584891
0.00584896
0.00584909
0.00584938
0.00584945
0.00584936
0.00584901
0.00584887
0.00584883
0.00584901
0.005849
0.0058489
0.0058488
0.00584869
0.00584859
0.00584849
0.00584838
0.00584826
0.00584807
0.0058481
0.00584806
0.00584802
0.00584798
0.00584795
0.00584794
0.00584794
0.00584795
0.00584797
0.005848
0.00584805
0.00584807
0.00584812
0.00584817
0.00584822
0.00584825
0.0058483
0.00584832
0.00584821
0.00584798
0.00584789
0.00584787
0.00584794
0.005848
0.00584802
0.00584803
0.005848
0.00584796
0.00584797
0.00584795
0.00555443
0.00555444
0.00555445
0.00555445
0.00555446
0.00555449
0.00555453
0.00555452
0.00555452
0.00555447
0.00555444
0.00555438
0.0055544
0.00555449
0.00555482
0.0055549
0.00555472
0.00555438
0.00555424
0.00555417
0.00555433
0.00555428
0.00555415
0.00555401
0.00555387
0.00555373
0.00555358
0.00555345
0.00555329
0.00555307
0.00555306
0.00555301
0.00555295
0.00555291
0.00555288
0.00555287
0.00555287
0.0055529
0.00555292
0.00555296
0.00555302
0.00555308
0.00555313
0.0055532
0.00555326
0.00555333
0.00555338
0.00555335
0.00555312
0.00555303
0.00555299
0.00555306
0.0055531
0.00555317
0.00555319
0.00555321
0.0055532
0.00555316
0.00555317
0.00555317
0.00528673
0.00528673
0.00528673
0.00528675
0.00528674
0.00528677
0.00528681
0.0052868
0.00528679
0.00528678
0.00528671
0.00528664
0.00528665
0.00528674
0.005287
0.00528706
0.00528672
0.00528648
0.00528635
0.00528627
0.00528638
0.0052863
0.00528613
0.00528594
0.00528576
0.00528557
0.00528539
0.00528521
0.00528501
0.00528476
0.00528473
0.00528465
0.00528457
0.00528452
0.00528449
0.00528447
0.00528448
0.00528451
0.00528457
0.00528462
0.00528469
0.00528477
0.00528486
0.00528495
0.00528503
0.00528512
0.00528518
0.00528514
0.00528491
0.00528485
0.00528488
0.00528494
0.005285
0.00528507
0.00528511
0.00528514
0.00528512
0.00528511
0.00528512
0.00528512
0.00504239
0.0050424
0.0050424
0.00504241
0.00504242
0.00504244
0.00504246
0.00504245
0.00504244
0.00504242
0.00504238
0.00504228
0.00504222
0.00504226
0.00504235
0.00504253
0.0050422
0.00504199
0.00504184
0.00504172
0.00504174
0.00504165
0.00504145
0.00504121
0.00504098
0.00504074
0.0050405
0.00504028
0.00504004
0.00503975
0.00503969
0.00503959
0.00503949
0.00503942
0.00503938
0.00503938
0.0050394
0.00503943
0.0050395
0.00503959
0.00503967
0.00503978
0.00503989
0.00504
0.00504012
0.00504021
0.00504023
0.00504015
0.00504005
0.00504003
0.00504009
0.00504016
0.00504024
0.00504033
0.00504037
0.00504041
0.00504041
0.00504039
0.00504041
0.00504041
0.00481858
0.00481859
0.00481859
0.0048186
0.0048186
0.00481862
0.00481864
0.00481864
0.00481861
0.00481858
0.00481854
0.00481846
0.00481836
0.00481834
0.00481838
0.00481851
0.00481824
0.00481802
0.00481781
0.00481764
0.00481749
0.00481746
0.00481725
0.00481696
0.00481667
0.00481637
0.00481608
0.00481581
0.00481552
0.00481518
0.00481509
0.00481496
0.00481484
0.00481476
0.00481472
0.00481471
0.00481474
0.0048148
0.00481488
0.00481498
0.00481511
0.00481524
0.00481538
0.00481553
0.00481566
0.00481575
0.00481569
0.0048157
0.0048157
0.00481571
0.00481579
0.00481589
0.00481598
0.00481607
0.00481613
0.00481618
0.00481619
0.00481618
0.0048162
0.00481621
0.00461288
0.00461289
0.00461289
0.0046129
0.0046129
0.00461292
0.00461293
0.00461292
0.0046129
0.00461286
0.00461282
0.00461272
0.00461263
0.00461252
0.00461246
0.00461243
0.00461233
0.00461215
0.00461191
0.00461168
0.00461143
0.00461139
0.00461113
0.00461079
0.00461043
0.00461007
0.00460972
0.00460938
0.00460904
0.00460866
0.00460853
0.00460836
0.00460822
0.00460813
0.00460809
0.00460809
0.00460812
0.0046082
0.00460831
0.00460844
0.0046086
0.00460877
0.00460894
0.00460912
0.00460927
0.00460935
0.00460933
0.00460941
0.00460942
0.00460947
0.00460957
0.00460969
0.0046098
0.0046099
0.00460998
0.00461003
0.00461005
0.00461006
0.00461008
0.00461009
0.00442323
0.00442325
0.00442324
0.00442324
0.00442325
0.00442326
0.00442327
0.00442326
0.00442324
0.0044232
0.00442314
0.00442305
0.00442295
0.00442283
0.00442269
0.00442261
0.00442253
0.00442233
0.00442206
0.00442177
0.00442147
0.00442138
0.00442105
0.00442064
0.00442021
0.00441978
0.00441935
0.00441895
0.00441854
0.00441811
0.00441793
0.00441774
0.00441758
0.00441747
0.00441743
0.00441743
0.00441749
0.00441759
0.00441773
0.0044179
0.00441809
0.0044183
0.0044185
0.00441871
0.00441882
0.00441889
0.004419
0.00441912
0.00441917
0.00441927
0.00441939
0.00441953
0.00441966
0.00441977
0.00441986
0.00441993
0.00441996
0.00441997
0.00442
0.00442001
0.00424787
0.00424789
0.00424788
0.00424789
0.00424789
0.0042479
0.00424791
0.0042479
0.00424788
0.00424783
0.00424777
0.00424767
0.00424756
0.00424742
0.00424728
0.00424717
0.00424707
0.00424682
0.0042465
0.00424617
0.00424581
0.00424564
0.00424524
0.00424475
0.00424424
0.00424374
0.00424323
0.00424275
0.00424228
0.00424179
0.00424157
0.00424133
0.00424115
0.00424104
0.00424099
0.00424101
0.00424108
0.00424122
0.00424139
0.0042416
0.00424182
0.00424208
0.00424232
0.00424252
0.00424258
0.00424276
0.00424293
0.00424309
0.00424321
0.00424333
0.0042435
0.00424365
0.00424379
0.00424392
0.00424402
0.0042441
0.00424414
0.00424417
0.0042442
0.00424421
0.00408529
0.0040853
0.0040853
0.00408531
0.00408531
0.00408532
0.00408533
0.00408532
0.00408529
0.00408525
0.00408518
0.00408507
0.00408496
0.00408481
0.00408465
0.00408452
0.00408437
0.0040841
0.00408373
0.00408334
0.00408293
0.00408263
0.0040822
0.00408163
0.00408103
0.00408043
0.00407985
0.00407928
0.00407873
0.00407818
0.0040779
0.00407763
0.00407742
0.0040773
0.00407725
0.00407729
0.00407739
0.00407756
0.00407777
0.00407802
0.0040783
0.00407859
0.00407888
0.00407908
0.00407921
0.00407942
0.00407965
0.00407981
0.00407997
0.00408016
0.00408036
0.00408053
0.00408069
0.00408084
0.00408096
0.00408105
0.00408109
0.00408113
0.00408117
0.00408117
0.00393417
0.00393417
0.00393418
0.00393418
0.00393419
0.00393421
0.00393422
0.0039342
0.00393418
0.00393414
0.00393407
0.00393396
0.00393384
0.00393368
0.0039335
0.00393334
0.00393317
0.00393285
0.00393245
0.00393198
0.00393149
0.00393099
0.00393058
0.00392997
0.00392928
0.00392858
0.00392789
0.00392723
0.0039266
0.00392598
0.00392563
0.00392532
0.00392509
0.00392495
0.00392491
0.00392497
0.00392511
0.00392531
0.00392557
0.00392587
0.00392621
0.00392654
0.0039268
0.00392701
0.00392727
0.00392756
0.00392783
0.00392803
0.00392823
0.00392847
0.00392869
0.00392889
0.00392906
0.00392923
0.00392936
0.00392945
0.00392951
0.00392955
0.0039296
0.00392961
0.00379336
0.00379337
0.00379338
0.00379339
0.00379339
0.00379342
0.00379343
0.00379341
0.00379339
0.00379335
0.00379328
0.00379317
0.00379304
0.00379288
0.00379269
0.0037925
0.00379231
0.00379197
0.00379151
0.00379098
0.00379041
0.00378979
0.00378932
0.00378863
0.00378783
0.00378702
0.00378622
0.00378546
0.00378473
0.00378403
0.00378362
0.00378326
0.003783
0.00378286
0.00378283
0.00378291
0.00378309
0.00378334
0.00378366
0.00378402
0.0037844
0.00378476
0.00378498
0.00378531
0.00378567
0.00378602
0.00378633
0.00378658
0.00378683
0.00378709
0.00378735
0.00378757
0.00378776
0.00378794
0.00378808
0.00378819
0.00378825
0.0037883
0.00378835
0.00378837
0.00366189
0.0036619
0.00366191
0.00366192
0.00366193
0.00366195
0.00366197
0.00366196
0.00366195
0.00366191
0.00366184
0.00366174
0.0036616
0.00366143
0.00366123
0.00366102
0.0036608
0.00366042
0.00365994
0.00365935
0.0036587
0.00365801
0.0036574
0.00365663
0.00365573
0.00365479
0.00365386
0.00365298
0.00365214
0.00365135
0.00365087
0.00365046
0.00365017
0.00365002
0.00365001
0.00365013
0.00365035
0.00365066
0.00365103
0.00365145
0.00365189
0.00365229
0.00365258
0.00365299
0.00365342
0.00365381
0.00365414
0.00365444
0.00365475
0.00365506
0.00365534
0.00365558
0.00365579
0.00365599
0.00365614
0.00365626
0.00365633
0.00365639
0.00365643
0.00365646
0.00353886
0.00353888
0.00353889
0.0035389
0.00353891
0.00353894
0.00353897
0.00353896
0.00353895
0.00353892
0.00353886
0.00353876
0.00353863
0.00353846
0.00353825
0.00353802
0.00353776
0.00353737
0.00353685
0.00353622
0.00353549
0.0035347
0.00353386
0.00353308
0.00353209
0.00353102
0.00352995
0.00352893
0.00352797
0.00352708
0.00352651
0.00352605
0.00352573
0.00352558
0.00352559
0.00352574
0.00352602
0.00352639
0.00352681
0.00352726
0.00352774
0.00352818
0.00352864
0.00352914
0.00352964
0.00353007
0.00353044
0.00353079
0.00353116
0.0035315
0.0035318
0.00353206
0.00353229
0.0035325
0.00353266
0.00353279
0.00353287
0.00353293
0.00353299
0.00353301
0.00342351
0.00342353
0.00342354
0.00342356
0.00342358
0.00342361
0.00342365
0.00342365
0.00342365
0.00342363
0.00342358
0.00342349
0.00342336
0.00342319
0.00342297
0.0034227
0.00342241
0.00342204
0.0034215
0.00342083
0.00342004
0.00341915
0.00341819
0.00341732
0.0034162
0.00341497
0.00341375
0.00341257
0.00341146
0.00341045
0.00340978
0.00340926
0.00340891
0.00340876
0.0034088
0.003409
0.00340934
0.00340976
0.00341025
0.00341078
0.00341127
0.00341182
0.00341242
0.00341301
0.00341355
0.003414
0.00341443
0.00341486
0.00341527
0.00341564
0.00341596
0.00341624
0.00341649
0.00341671
0.00341688
0.00341702
0.00341711
0.00341718
0.00341723
0.00341726
0.00331516
0.00331518
0.0033152
0.00331522
0.00331525
0.00331529
0.00331533
0.00331535
0.00331536
0.00331535
0.00331531
0.00331523
0.00331512
0.00331496
0.00331474
0.00331446
0.00331415
0.00331378
0.00331323
0.00331252
0.00331168
0.00331073
0.00330967
0.00330866
0.00330742
0.00330602
0.00330461
0.00330325
0.00330197
0.00330082
0.00330004
0.00329943
0.00329905
0.0032989
0.00329897
0.00329923
0.00329961
0.0033001
0.00330069
0.00330132
0.00330191
0.00330257
0.00330325
0.00330391
0.0033045
0.003305
0.00330549
0.00330597
0.00330641
0.00330681
0.00330715
0.00330745
0.00330772
0.00330794
0.00330812
0.00330827
0.00330837
0.00330844
0.00330849
0.00330852
0.0032132
0.00321323
0.00321325
0.00321328
0.00321331
0.00321336
0.00321341
0.00321344
0.00321347
0.00321347
0.00321345
0.00321339
0.0032133
0.00321316
0.00321295
0.00321268
0.00321237
0.00321198
0.00321144
0.00321071
0.00320984
0.00320882
0.0032077
0.0032065
0.00320525
0.00320365
0.00320203
0.00320045
0.00319899
0.00319766
0.00319675
0.00319607
0.00319565
0.00319549
0.00319559
0.00319592
0.00319628
0.00319685
0.00319748
0.00319821
0.00319897
0.00319976
0.00320053
0.00320123
0.00320185
0.00320243
0.00320299
0.00320352
0.003204
0.00320441
0.00320478
0.00320509
0.00320536
0.0032056
0.00320579
0.00320594
0.00320604
0.00320612
0.00320617
0.00320621
0.0031171
0.00311713
0.00311715
0.00311719
0.00311723
0.00311729
0.00311735
0.0031174
0.00311744
0.00311747
0.00311747
0.00311743
0.00311736
0.00311724
0.00311706
0.0031168
0.00311647
0.00311608
0.00311557
0.00311488
0.003114
0.00311295
0.00311182
0.00311127
0.00315565
0.003154
0.00315223
0.00315051
0.00314892
0.00314748
0.00314648
0.00314576
0.00314531
0.00314515
0.00314527
0.00314561
0.00309906
0.00309951
0.00310025
0.00310111
0.003102
0.00310288
0.00310371
0.00310445
0.00310513
0.0031058
0.00310642
0.00310698
0.00310747
0.00310791
0.00310829
0.00310862
0.0031089
0.00310914
0.00310934
0.00310949
0.0031096
0.00310968
0.00310973
0.00310977
0.00302637
0.0030264
0.00302643
0.00302648
0.00302653
0.0030266
0.00302667
0.00302674
0.0030268
0.00302685
0.00302687
0.00302686
0.00302683
0.00302674
0.0030266
0.00302637
0.00302605
0.00302566
0.00302517
0.00302455
0.00302371
0.00302272
0.00302234
0.00306466
0.00306102
0.00305942
0.00305738
0.00305538
0.00305351
0.00305182
0.00305063
0.00304974
0.00304919
0.00304898
0.00304911
0.00304946
0.00305161
0.00300793
0.00300861
0.00300954
0.00301052
0.00301147
0.00301236
0.00301315
0.0030139
0.00301462
0.00301528
0.00301587
0.00301639
0.00301684
0.00301723
0.00301757
0.00301786
0.0030181
0.0030183
0.00301845
0.00301856
0.00301864
0.0030187
0.00301874
0.00294058
0.00294062
0.00294065
0.0029407
0.00294077
0.00294085
0.00294094
0.00294103
0.00294111
0.00294118
0.00294124
0.00294126
0.00294126
0.00294122
0.00294112
0.00294094
0.00294068
0.00294033
0.00293989
0.00293934
0.0029386
0.00293774
0.00293804
0.00297579
0.00297227
0.0029921
0.00298978
0.00298752
0.00298546
0.00298363
0.00298235
0.00298138
0.00298075
0.00298047
0.00298051
0.00295915
0.00296089
0.0029214
0.00292211
0.00292307
0.00292411
0.00292511
0.00292603
0.00292689
0.00292772
0.00292848
0.00292917
0.00292977
0.00293031
0.00293077
0.00293117
0.00293151
0.00293179
0.00293204
0.00293224
0.00293239
0.0029325
0.00293258
0.00293264
0.00293268
0.00285935
0.00285939
0.00285943
0.00285949
0.00285956
0.00285966
0.00285977
0.00285987
0.00285998
0.00286008
0.00286017
0.00286024
0.00286028
0.00286029
0.00286025
0.00286013
0.00285994
0.00285967
0.0028593
0.00285884
0.00285826
0.0028577
0.00285871
0.00289225
0.0028889
0.0029069
0.00290397
0.00290146
0.00289933
0.00289759
0.00289635
0.00289538
0.00289462
0.00289403
0.00289351
0.00287395
0.00287536
0.00283969
0.00284043
0.00284136
0.00284241
0.00284342
0.0028444
0.00284533
0.0028462
0.00284699
0.00284769
0.00284831
0.00284885
0.00284931
0.00284971
0.00285005
0.00285034
0.00285058
0.00285078
0.00285093
0.00285104
0.00285111
0.00285117
0.00285121
0.00278233
0.00278237
0.00278242
0.00278248
0.00278257
0.00278268
0.0027828
0.00278293
0.00278307
0.0027832
0.00278333
0.00278343
0.00278353
0.0027836
0.00278362
0.00278359
0.0027835
0.00278334
0.00278309
0.00278277
0.00278241
0.00278233
0.00278407
0.00281385
0.00281102
0.00282788
0.00282403
0.00282186
0.00282021
0.00281892
0.00281784
0.00281664
0.00281525
0.00281379
0.00281246
0.0027931
0.00279511
0.00276253
0.00276325
0.00276411
0.00276511
0.00276615
0.00276716
0.00276813
0.00276902
0.00276981
0.00277052
0.00277113
0.00277167
0.00277213
0.00277252
0.00277286
0.00277314
0.00277337
0.00277356
0.00277371
0.00277382
0.00277389
0.00277394
0.00277399
0.00270919
0.00270924
0.0027093
0.00270937
0.00270947
0.00270959
0.00270974
0.00270989
0.00271005
0.00271022
0.00271038
0.00271054
0.00271068
0.00271082
0.00271092
0.00271099
0.00271102
0.002711
0.00271095
0.00271086
0.00271081
0.00271139
0.00271388
0.00274036
0.00273912
0.00275548
0.00275071
0.00275107
0.00275208
0.00275273
0.00275165
0.00274877
0.00274488
0.00274116
0.00273832
0.00271692
0.00272034
0.0026897
0.0026903
0.00269106
0.00269199
0.00269302
0.00269404
0.00269499
0.00269586
0.00269664
0.00269734
0.00269794
0.00269846
0.00269891
0.00269929
0.00269961
0.00269988
0.00270011
0.00270029
0.00270043
0.00270053
0.00270059
0.00270065
0.00270069
0.00263967
0.00263973
0.00263978
0.00263987
0.00263998
0.00264012
0.00264028
0.00264045
0.00264064
0.00264084
0.00264105
0.00264125
0.00264146
0.00264166
0.00264186
0.00264203
0.0026422
0.00264237
0.00264256
0.00264281
0.00264323
0.0026447
0.00264787
0.0026717
0.00267395
0.00268995
0.00268716
0.00269647
0.00270905
0.00271808
0.00271536
0.00270329
0.0026897
0.00267955
0.00267298
0.0026462
0.00265113
0.00262121
0.00262143
0.00262212
0.00262285
0.00262378
0.00262473
0.00262563
0.00262646
0.00262721
0.00262787
0.00262844
0.00262894
0.00262937
0.00262972
0.00263003
0.00263028
0.00263049
0.00263066
0.00263079
0.00263088
0.00263095
0.00263099
0.00263104
0.0025735
0.00257356
0.00257362
0.00257371
0.00257383
0.00257399
0.00257417
0.00257436
0.00257458
0.00257481
0.00257506
0.00257531
0.00257558
0.00257586
0.00257615
0.00257645
0.00257677
0.00257715
0.00257763
0.00257833
0.00257941
0.00258201
0.0025857
0.0026078
0.00261629
0.00263264
0.00264168
0.00268357
0.0027521
0.00280642
0.0027893
0.00272193
0.00266663
0.00263541
0.00261929
0.00258304
0.0025875
0.00255723
0.00255654
0.00255704
0.00255745
0.00255819
0.002559
0.0025598
0.00256056
0.00256124
0.00256186
0.00256239
0.00256285
0.00256324
0.00256357
0.00256385
0.00256408
0.00256428
0.00256443
0.00256455
0.00256463
0.00256469
0.00256473
0.00256477
0.00251044
0.0025105
0.00251057
0.00251067
0.0025108
0.00251097
0.00251117
0.00251139
0.00251163
0.0025119
0.00251219
0.00251249
0.00251282
0.00251317
0.00251356
0.00251398
0.00251447
0.00251507
0.00251589
0.0025171
0.00251902
0.00252296
0.00252707
0.00254883
0.00256638
0.00258709
0.00263848
0.00279573
0.00297138
0.00309232
0.00304564
0.00288777
0.00272021
0.00261962
0.0025804
0.00252998
0.00252946
0.00249817
0.00249552
0.00249561
0.00249557
0.00249601
0.00249662
0.00249728
0.00249792
0.00249852
0.00249906
0.00249954
0.00249995
0.0025003
0.00250059
0.00250084
0.00250105
0.00250122
0.00250135
0.00250146
0.00250153
0.00250158
0.00250161
0.00250165
0.00245028
0.00245035
0.00245042
0.00245053
0.00245067
0.00245086
0.00245107
0.00245131
0.00245158
0.00245188
0.0024522
0.00245255
0.00245294
0.00245336
0.00245384
0.00245439
0.00245504
0.00245588
0.00245705
0.00245881
0.00246171
0.00246705
0.00247142
0.00249482
0.00252447
0.00256033
0.00273014
0.00303179
0.00344171
0.00427906
0.00401035
0.00326687
0.00286509
0.00264283
0.00255715
0.00248935
0.00247733
0.00244427
0.00243835
0.00243761
0.00243699
0.00243703
0.00243737
0.00243783
0.00243833
0.00243881
0.00243926
0.00243966
0.00244001
0.00244031
0.00244056
0.00244078
0.00244095
0.0024411
0.00244121
0.0024413
0.00244136
0.0024414
0.00244143
0.00244147
0.00239283
0.00239291
0.00239298
0.0023931
0.00239325
0.00239344
0.00239367
0.00239393
0.00239423
0.00239455
0.00239491
0.00239531
0.00239574
0.00239624
0.0023968
0.00239745
0.00239827
0.00239932
0.00240083
0.00240315
0.00240706
0.00241376
0.00241832
0.00244511
0.00249009
0.00255605
0.00291897
0.00342542
0.00491683
0.00496433
0.00304626
0.00269271
0.00254658
0.00246112
0.00243131
0.00239575
0.00238504
0.00238281
0.00238147
0.00238101
0.00238101
0.00238122
0.00238154
0.00238189
0.00238223
0.00238255
0.00238283
0.00238307
0.00238328
0.00238345
0.00238359
0.00238371
0.00238381
0.00238388
0.00238392
0.00238396
0.00238398
0.00238403
0.00233791
0.00233799
0.00233807
0.00233819
0.00233835
0.00233856
0.0023388
0.00233908
0.00233939
0.00233974
0.00234013
0.00234056
0.00234105
0.0023416
0.00234223
0.00234299
0.00234393
0.00234518
0.00234699
0.00234979
0.00235465
0.00236253
0.00236783
0.00239886
0.00246258
0.00256142
0.00315357
0.0039165
0.0129651
0.0104558
0.0130005
0.00318392
0.00273973
0.00254514
0.00244373
0.0023918
0.00235263
0.00233569
0.00233111
0.00232889
0.00232783
0.00232742
0.00232734
0.00232744
0.00232763
0.00232784
0.00232806
0.00232826
0.00232843
0.00232858
0.00232871
0.00232882
0.0023289
0.00232897
0.00232903
0.00232906
0.00232908
0.0023291
0.00232914
0.00228535
0.00228544
0.00228552
0.00228565
0.00228582
0.00228603
0.00228629
0.00228658
0.00228691
0.00228729
0.0022877
0.00228817
0.00228869
0.00228929
0.00228998
0.0022908
0.00229185
0.00229324
0.00229528
0.00229846
0.0023041
0.00231298
0.00232047
0.00235642
0.00244056
0.00256932
0.00344418
0.00454042
0.0106328
0.148558
0.0597753
0.173832
0.00579219
0.00281486
0.00255655
0.00243524
0.00235882
0.00231448
0.00229016
0.00228227
0.00227899
0.00227725
0.00227637
0.00227596
0.00227582
0.00227582
0.0022759
0.002276
0.00227611
0.00227621
0.0022763
0.00227638
0.00227644
0.0022765
0.00227654
0.00227657
0.00227659
0.0022766
0.00227661
0.00227665
0.00223502
0.0022351
0.00223519
0.00223532
0.0022355
0.00223572
0.00223599
0.00223629
0.00223664
0.00223703
0.00223747
0.00223796
0.00223851
0.00223914
0.00223987
0.00224074
0.00224185
0.00224333
0.0022455
0.00224892
0.00225508
0.00226493
0.00227631
0.00231765
0.00242267
0.00258541
0.00366488
0.00528867
0.00798111
0.0256452
0.0381412
0.0789751
0.0326844
0.00319805
0.00258717
0.00243206
0.00233173
0.00228042
0.00224807
0.00223604
0.00223153
0.00222903
0.00222766
0.00222689
0.00222649
0.00222629
0.00222621
0.0022262
0.00222621
0.00222624
0.00222627
0.00222629
0.00222631
0.00222634
0.00222635
0.00222636
0.00222636
0.00222636
0.00222636
0.0022264
0.00218676
0.00218684
0.00218693
0.00218707
0.00218725
0.00218748
0.00218776
0.00218807
0.00218844
0.00218884
0.0021893
0.0021898
0.00219037
0.00219102
0.00219177
0.00219266
0.00219377
0.00219526
0.00219748
0.00220105
0.00220749
0.00221837
0.0022348
0.00228219
0.00240653
0.00261401
0.00382776
0.00640804
0.00940415
0.0110029
0.00965305
0.0342261
0.0661286
0.00495687
0.00264151
0.00242692
0.00230865
0.00224911
0.00220876
0.00219209
0.00218625
0.00218297
0.00218109
0.00217994
0.00217928
0.00217888
0.00217864
0.0021785
0.00217842
0.00217837
0.00217833
0.00217831
0.00217829
0.00217828
0.00217826
0.00217825
0.00217823
0.00217822
0.00217821
0.00217825
0.00214045
0.00214054
0.00214063
0.00214077
0.00214096
0.00214119
0.00214148
0.0021418
0.00214217
0.00214259
0.00214306
0.00214358
0.00214416
0.0021448
0.00214554
0.0021464
0.00214749
0.002149
0.00215124
0.00215488
0.00216133
0.00217318
0.00219465
0.00224863
0.00239104
0.00264077
0.00422053
0.0105451
0.0217134
0.023166
0.0139384
0.0313448
0.0585689
0.00677748
0.00272005
0.00241212
0.00228662
0.00221891
0.00217139
0.00215007
0.00214289
0.00213884
0.00213647
0.00213495
0.00213402
0.00213342
0.00213303
0.00213277
0.00213259
0.00213246
0.00213237
0.00213229
0.00213223
0.00213219
0.00213215
0.00213211
0.00213208
0.00213205
0.00213204
0.00213207
0.00209598
0.00209607
0.00209617
0.00209631
0.0020965
0.00209674
0.00209703
0.00209736
0.00209774
0.00209817
0.00209864
0.00209916
0.00209973
0.00210034
0.00210105
0.00210193
0.00210304
0.00210455
0.00210673
0.00211035
0.00211663
0.0021292
0.00215454
0.00221425
0.0023709
0.00271066
0.013759
0.146669
0.17799
0.133803
0.0420107
0.0341103
0.0443481
0.00697508
0.00278708
0.00238286
0.0022635
0.0021883
0.00213512
0.0021096
0.0021012
0.0020964
0.00209358
0.00209175
0.00209058
0.00208979
0.00208925
0.00208888
0.00208861
0.0020884
0.00208825
0.00208812
0.00208803
0.00208795
0.00208788
0.00208783
0.00208778
0.00208774
0.00208772
0.00208775
0.00205324
0.00205334
0.00205343
0.00205358
0.00205377
0.00205402
0.00205431
0.00205465
0.00205503
0.00205546
0.00205593
0.00205644
0.00205698
0.0020576
0.00205833
0.0020592
0.00206029
0.00206177
0.00206387
0.00206742
0.0020735
0.00208636
0.00211378
0.00217785
0.00234303
0.00344936
0.0993899
0.241952
0.135032
0.0747674
0.0267119
0.0344422
0.0323102
0.00646545
0.00285994
0.00234684
0.00223795
0.00215643
0.00209931
0.00207047
0.00206103
0.0020556
0.00205235
0.00205018
0.00204879
0.00204784
0.00204718
0.0020467
0.00204634
0.00204607
0.00204586
0.00204569
0.00204555
0.00204544
0.00204535
0.00204528
0.00204522
0.00204517
0.00204514
0.00204517
0.00201213
0.00201223
0.00201233
0.00201247
0.00201267
0.00201292
0.00201322
0.00201356
0.00201394
0.00201436
0.0020148
0.0020153
0.00201586
0.0020165
0.00201724
0.0020181
0.00201915
0.00202058
0.00202261
0.00202607
0.00203198
0.00204485
0.00207295
0.0021409
0.00238257
0.00789288
0.179329
0.213033
0.0667031
0.0386233
0.0275336
0.0333688
0.0223247
0.00574798
0.00292748
0.00231643
0.00221276
0.00212317
0.00206351
0.00203249
0.00202218
0.00201622
0.00201262
0.00201015
0.00200854
0.00200744
0.00200668
0.00200612
0.00200569
0.00200535
0.00200509
0.00200488
0.00200471
0.00200458
0.00200447
0.00200437
0.0020043
0.00200424
0.00200421
0.00200423
0.00197256
0.00197266
0.00197276
0.00197291
0.00197311
0.00197336
0.00197366
0.001974
0.00197438
0.00197478
0.00197522
0.00197574
0.00197631
0.00197695
0.00197768
0.00197851
0.00197954
0.00198092
0.00198289
0.00198623
0.00199205
0.00200477
0.00203292
0.00210471
0.00260365
0.0161125
0.198396
0.199081
0.0387138
0.028948
0.0277826
0.0262314
0.0152163
0.00509014
0.00295118
0.00229666
0.0021874
0.0020884
0.00202777
0.00199571
0.00198457
0.00197814
0.00197425
0.00197156
0.00196977
0.00196852
0.00196766
0.00196703
0.00196655
0.00196616
0.00196586
0.00196561
0.00196542
0.00196525
0.00196512
0.00196502
0.00196493
0.00196486
0.00196482
0.00196484
0.00193445
0.00193455
0.00193465
0.0019348
0.001935
0.00193525
0.00193555
0.00193588
0.00193625
0.00193666
0.00193712
0.00193764
0.00193822
0.00193885
0.00193956
0.00194038
0.00194139
0.00194273
0.00194464
0.00194786
0.00195367
0.00196613
0.0019945
0.00207071
0.00302241
0.0244892
0.188539
0.184925
0.031873
0.0252031
0.0238967
0.0185304
0.0106887
0.00456497
0.00293312
0.00228623
0.00216077
0.00205275
0.00199215
0.00195993
0.00194806
0.00194135
0.00193712
0.00193427
0.00193235
0.00193099
0.00193003
0.00192934
0.00192882
0.0019284
0.00192806
0.00192779
0.00192756
0.00192738
0.00192724
0.00192712
0.00192702
0.00192695
0.0019269
0.00192692
0.00189771
0.00189781
0.00189791
0.00189807
0.00189827
0.00189851
0.00189879
0.00189912
0.0018995
0.00189993
0.0019004
0.00190092
0.0019015
0.00190213
0.00190283
0.00190364
0.00190462
0.00190593
0.0019078
0.00191094
0.00191674
0.0019289
0.00195827
0.00204048
0.00358817
0.0312843
0.17152
0.161428
0.0396285
0.0213632
0.019156
0.0126931
0.00795761
0.00415173
0.00291908
0.00228127
0.00213249
0.00201708
0.00195687
0.00192506
0.00191256
0.00190573
0.00190124
0.00189822
0.00189616
0.00189472
0.00189373
0.00189299
0.00189242
0.00189199
0.00189163
0.00189133
0.00189109
0.00189089
0.00189073
0.00189059
0.00189049
0.00189041
0.00189036
0.00189038
0.00186228
0.00186238