/*--------------------------------*- C++ -*----------------------------------*\
  =========                 |
  \\      /  F ield         | OpenFOAM: The Open Source CFD Toolbox
   \\    /   O peration     | Website:  https://openfoam.org
    \\  /    A nd           | Version:  12
     \\/     M anipulation  |
\*---------------------------------------------------------------------------*/
FoamFile
{
    format      ascii;
    class       volScalarField;
    location    "280";
    object      nut;
}
// * * * * * * * * * * * * * * * * * * * * * * * * * * * * * * * * * * * * * //

dimensions      [0 2 -1 0 0 0 0];

internalField   nonuniform List<scalar> 
16227
(
0.000978543
0.000978543
0.000978543
0.000978543
0.000978543
0.000978543
0.000978543
0.000978543
0.000978543
0.000978543
0.000978543
0.000978544
0.000978544
0.000978544
0.000978544
0.000978544
0.000978544
0.000978544
0.000978544
0.000978544
0.000978544
0.000978544
0.000978544
0.000978544
0.000978544
0.000978544
0.000978544
0.000978544
0.000978544
0.000978544
0.000978544
0.000978544
0.000978544
0.000978544
0.000978544
0.000978544
0.000978544
0.000978544
0.000978544
0.000978544
0.000978544
0.000978544
0.000978544
0.000978544
0.000978544
0.000978544
0.000978544
0.000978544
0.000978544
0.000978544
0.000978544
0.000978543
0.000978543
0.000978543
0.000978543
0.000978543
0.000978543
0.000978543
0.000978543
0.000978543
0.000972834
0.000972834
0.000972834
0.000972834
0.000972834
0.000972835
0.000972834
0.000972834
0.000972834
0.000972835
0.000972835
0.000972835
0.000972836
0.000972837
0.000972837
0.000972837
0.000972837
0.000972837
0.000972837
0.000972837
0.000972837
0.000972837
0.000972837
0.000972837
0.000972837
0.000972837
0.000972837
0.000972837
0.000972837
0.000972836
0.000972837
0.000972837
0.000972837
0.000972837
0.000972837
0.000972837
0.000972837
0.000972837
0.000972837
0.000972837
0.000972836
0.000972836
0.000972836
0.000972836
0.000972836
0.000972836
0.000972836
0.000972836
0.000972836
0.000972836
0.000972836
0.000972836
0.000972835
0.000972835
0.000972834
0.000972834
0.000972835
0.000972834
0.000972834
0.000972834
0.000967494
0.000967494
0.000967495
0.000967495
0.000967495
0.000967495
0.000967495
0.000967495
0.000967495
0.000967495
0.000967495
0.000967496
0.000967498
0.000967498
0.000967499
0.000967499
0.000967499
0.000967499
0.000967499
0.000967499
0.000967499
0.000967499
0.000967499
0.000967499
0.000967499
0.000967499
0.000967499
0.000967499
0.000967499
0.000967498
0.000967498
0.000967498
0.000967498
0.000967498
0.000967498
0.000967498
0.000967498
0.000967498
0.000967498
0.000967498
0.000967498
0.000967498
0.000967498
0.000967497
0.000967498
0.000967498
0.000967497
0.000967498
0.000967497
0.000967497
0.000967497
0.000967495
0.000967495
0.000967494
0.000967494
0.000967494
0.000967495
0.000967494
0.000967494
0.000967494
0.000962482
0.000962482
0.000962482
0.000962482
0.000962482
0.000962483
0.000962483
0.000962483
0.000962483
0.000962483
0.000962483
0.000962484
0.000962486
0.000962487
0.000962487
0.000962488
0.000962488
0.000962488
0.000962487
0.000962486
0.000962487
0.000962488
0.000962487
0.000962487
0.000962487
0.000962487
0.000962487
0.000962487
0.000962486
0.000962486
0.000962486
0.000962486
0.000962486
0.000962486
0.000962486
0.000962486
0.000962485
0.000962485
0.000962485
0.000962485
0.000962485
0.000962485
0.000962485
0.000962485
0.000962485
0.000962485
0.000962485
0.000962485
0.000962485
0.000962485
0.000962484
0.000962482
0.000962481
0.000962481
0.000962482
0.000962482
0.000962481
0.000962481
0.000962481
0.000962481
0.000957761
0.000957761
0.000957761
0.000957762
0.000957762
0.000957762
0.000957763
0.000957762
0.000957762
0.000957762
0.000957763
0.000957764
0.000957766
0.000957768
0.000957768
0.000957768
0.000957768
0.000957768
0.000957766
0.000957765
0.000957767
0.000957768
0.000957767
0.000957767
0.000957767
0.000957767
0.000957766
0.000957766
0.000957765
0.000957764
0.000957765
0.000957765
0.000957764
0.000957764
0.000957764
0.000957764
0.000957764
0.000957764
0.000957764
0.000957764
0.000957764
0.000957764
0.000957764
0.000957764
0.000957764
0.000957764
0.000957764
0.000957764
0.000957764
0.000957763
0.000957761
0.00095776
0.000957759
0.00095776
0.00095776
0.000957761
0.00095776
0.000957759
0.000957759
0.000957759
0.000953303
0.000953303
0.000953303
0.000953303
0.000953303
0.000953303
0.000953304
0.000953304
0.000953304
0.000953304
0.000953304
0.000953304
0.000953306
0.000953309
0.00095331
0.00095331
0.00095331
0.000953309
0.000953306
0.000953306
0.000953308
0.000953309
0.000953308
0.000953308
0.000953307
0.000953307
0.000953306
0.000953306
0.000953305
0.000953304
0.000953304
0.000953304
0.000953303
0.000953303
0.000953303
0.000953303
0.000953303
0.000953303
0.000953303
0.000953303
0.000953303
0.000953303
0.000953303
0.000953303
0.000953303
0.000953303
0.000953304
0.000953304
0.000953304
0.000953302
0.0009533
0.000953299
0.000953299
0.000953299
0.0009533
0.0009533
0.000953299
0.000953299
0.000953299
0.000953299
0.00094908
0.00094908
0.00094908
0.00094908
0.000949081
0.000949081
0.000949082
0.000949082
0.000949081
0.000949081
0.000949081
0.000949082
0.000949083
0.000949086
0.000949088
0.000949088
0.000949088
0.000949084
0.000949083
0.000949083
0.000949085
0.000949085
0.000949085
0.000949084
0.000949083
0.000949082
0.000949081
0.000949081
0.00094908
0.000949078
0.000949078
0.000949078
0.000949077
0.000949077
0.000949077
0.000949076
0.000949076
0.000949076
0.000949076
0.000949077
0.000949077
0.000949077
0.000949077
0.000949077
0.000949078
0.000949078
0.000949078
0.000949079
0.000949078
0.000949075
0.000949074
0.000949073
0.000949074
0.000949074
0.000949075
0.000949075
0.000949074
0.000949074
0.000949074
0.000949074
0.000945072
0.000945072
0.000945072
0.000945072
0.000945072
0.000945072
0.000945073
0.000945073
0.000945073
0.000945073
0.000945073
0.000945072
0.000945073
0.000945075
0.000945078
0.00094508
0.000945079
0.000945075
0.000945073
0.000945073
0.000945075
0.000945075
0.000945074
0.000945073
0.000945072
0.000945071
0.00094507
0.000945068
0.000945067
0.000945064
0.000945065
0.000945064
0.000945064
0.000945063
0.000945063
0.000945062
0.000945062
0.000945062
0.000945063
0.000945063
0.000945063
0.000945064
0.000945064
0.000945065
0.000945065
0.000945066
0.000945066
0.000945067
0.000945065
0.000945062
0.000945061
0.000945061
0.000945062
0.000945063
0.000945063
0.000945063
0.000945063
0.000945063
0.000945063
0.000945063
0.000941258
0.000941258
0.000941258
0.000941258
0.000941258
0.000941259
0.000941259
0.00094126
0.00094126
0.000941259
0.000941259
0.000941258
0.000941259
0.00094126
0.000941264
0.000941266
0.000941264
0.000941259
0.000941258
0.000941257
0.00094126
0.000941259
0.000941258
0.000941256
0.000941254
0.000941253
0.000941251
0.000941249
0.000941247
0.000941245
0.000941244
0.000941244
0.000941243
0.000941242
0.000941242
0.000941242
0.000941242
0.000941242
0.000941242
0.000941243
0.000941243
0.000941244
0.000941245
0.000941245
0.000941246
0.000941247
0.000941248
0.000941247
0.000941244
0.000941243
0.000941243
0.000941244
0.000941244
0.000941245
0.000941246
0.000941246
0.000941246
0.000941245
0.000941245
0.000941245
0.000937622
0.000937622
0.000937622
0.000937623
0.000937623
0.000937623
0.000937624
0.000937624
0.000937624
0.000937624
0.000937623
0.000937622
0.000937622
0.000937624
0.000937628
0.000937629
0.000937624
0.000937622
0.00093762
0.000937619
0.000937621
0.00093762
0.000937618
0.000937616
0.000937614
0.000937611
0.000937609
0.000937607
0.000937604
0.000937601
0.000937601
0.0009376
0.000937599
0.000937598
0.000937597
0.000937597
0.000937597
0.000937597
0.000937598
0.000937599
0.000937599
0.0009376
0.000937602
0.000937603
0.000937604
0.000937605
0.000937606
0.000937605
0.000937602
0.000937601
0.000937602
0.000937603
0.000937604
0.000937604
0.000937605
0.000937606
0.000937605
0.000937605
0.000937605
0.000937605
0.00093415
0.00093415
0.00093415
0.00093415
0.00093415
0.000934151
0.000934151
0.000934151
0.000934151
0.000934151
0.000934151
0.000934149
0.000934149
0.000934149
0.000934151
0.000934154
0.00093415
0.000934147
0.000934145
0.000934144
0.000934144
0.000934144
0.000934141
0.000934138
0.000934135
0.000934132
0.000934129
0.000934126
0.000934123
0.000934119
0.000934118
0.000934117
0.000934116
0.000934115
0.000934114
0.000934114
0.000934114
0.000934115
0.000934115
0.000934116
0.000934118
0.000934119
0.00093412
0.000934122
0.000934123
0.000934125
0.000934125
0.000934124
0.000934122
0.000934122
0.000934123
0.000934124
0.000934125
0.000934126
0.000934127
0.000934128
0.000934128
0.000934127
0.000934128
0.000934128
0.000930827
0.000930827
0.000930828
0.000930828
0.000930828
0.000930828
0.000930828
0.000930829
0.000930829
0.000930828
0.000930828
0.000930827
0.000930826
0.000930825
0.000930826
0.000930829
0.000930825
0.000930822
0.00093082
0.000930818
0.000930816
0.000930816
0.000930813
0.000930809
0.000930806
0.000930802
0.000930798
0.000930794
0.00093079
0.000930786
0.000930784
0.000930783
0.000930781
0.00093078
0.000930779
0.000930779
0.000930779
0.00093078
0.000930781
0.000930783
0.000930784
0.000930786
0.000930788
0.00093079
0.000930792
0.000930793
0.000930792
0.000930792
0.000930792
0.000930792
0.000930793
0.000930795
0.000930796
0.000930797
0.000930798
0.000930799
0.000930799
0.000930799
0.0009308
0.0009308
0.000927644
0.000927644
0.000927644
0.000927644
0.000927644
0.000927644
0.000927645
0.000927645
0.000927645
0.000927644
0.000927644
0.000927643
0.000927641
0.00092764
0.000927639
0.000927639
0.000927638
0.000927636
0.000927633
0.00092763
0.000927627
0.000927627
0.000927623
0.000927619
0.000927614
0.000927609
0.000927604
0.000927599
0.000927595
0.000927589
0.000927588
0.000927585
0.000927583
0.000927582
0.000927581
0.000927581
0.000927582
0.000927583
0.000927584
0.000927586
0.000927588
0.000927591
0.000927593
0.000927596
0.000927598
0.000927599
0.000927598
0.000927599
0.000927599
0.0009276
0.000927602
0.000927603
0.000927605
0.000927606
0.000927608
0.000927609
0.000927609
0.000927609
0.000927609
0.000927609
0.000924588
0.000924588
0.000924588
0.000924588
0.000924588
0.000924589
0.000924589
0.000924589
0.000924589
0.000924588
0.000924588
0.000924587
0.000924585
0.000924584
0.000924582
0.000924581
0.00092458
0.000924578
0.000924574
0.00092457
0.000924566
0.000924565
0.000924561
0.000924555
0.000924549
0.000924543
0.000924537
0.000924532
0.000924526
0.00092452
0.000924517
0.000924515
0.000924512
0.000924511
0.00092451
0.00092451
0.000924511
0.000924512
0.000924514
0.000924516
0.000924519
0.000924522
0.000924525
0.000924528
0.000924529
0.00092453
0.000924532
0.000924533
0.000924534
0.000924535
0.000924537
0.000924539
0.000924542
0.000924543
0.000924545
0.000924546
0.000924546
0.000924546
0.000924547
0.000924547
0.000921651
0.000921651
0.000921651
0.000921651
0.000921652
0.000921652
0.000921652
0.000921652
0.000921652
0.000921652
0.000921651
0.00092165
0.000921648
0.000921646
0.000921645
0.000921643
0.000921642
0.000921639
0.000921634
0.00092163
0.000921625
0.000921623
0.000921618
0.000921611
0.000921603
0.000921596
0.000921589
0.000921582
0.000921575
0.000921568
0.000921565
0.000921562
0.000921559
0.000921557
0.000921556
0.000921557
0.000921558
0.000921559
0.000921562
0.000921565
0.000921568
0.000921571
0.000921575
0.000921578
0.000921578
0.000921581
0.000921583
0.000921586
0.000921587
0.000921589
0.000921592
0.000921594
0.000921596
0.000921598
0.0009216
0.000921601
0.000921602
0.000921602
0.000921603
0.000921603
0.000918825
0.000918825
0.000918826
0.000918826
0.000918826
0.000918826
0.000918827
0.000918827
0.000918827
0.000918826
0.000918825
0.000918824
0.000918822
0.00091882
0.000918818
0.000918817
0.000918815
0.000918811
0.000918806
0.0009188
0.000918794
0.000918791
0.000918785
0.000918777
0.000918768
0.000918759
0.000918751
0.000918743
0.000918735
0.000918727
0.000918722
0.000918718
0.000918715
0.000918713
0.000918712
0.000918713
0.000918714
0.000918716
0.000918719
0.000918722
0.000918726
0.00091873
0.000918735
0.000918737
0.000918739
0.000918742
0.000918745
0.000918748
0.00091875
0.000918753
0.000918756
0.000918759
0.000918762
0.000918764
0.000918766
0.000918767
0.000918768
0.000918768
0.000918769
0.000918769
0.000916102
0.000916103
0.000916103
0.000916103
0.000916103
0.000916104
0.000916104
0.000916104
0.000916104
0.000916104
0.000916103
0.000916101
0.0009161
0.000916098
0.000916095
0.000916093
0.000916092
0.000916087
0.000916081
0.000916074
0.000916067
0.00091606
0.000916055
0.000916047
0.000916037
0.000916026
0.000916016
0.000916007
0.000915997
0.000915988
0.000915983
0.000915978
0.000915974
0.000915972
0.000915971
0.000915971
0.000915973
0.000915975
0.000915979
0.000915983
0.000915987
0.000915992
0.000915995
0.000915998
0.000916002
0.000916006
0.00091601
0.000916013
0.000916016
0.00091602
0.000916023
0.000916027
0.00091603
0.000916032
0.000916034
0.000916036
0.000916037
0.000916038
0.000916038
0.000916039
0.000913476
0.000913476
0.000913477
0.000913477
0.000913477
0.000913478
0.000913478
0.000913478
0.000913478
0.000913478
0.000913477
0.000913476
0.000913474
0.000913472
0.00091347
0.000913467
0.000913465
0.000913461
0.000913454
0.000913446
0.000913438
0.000913429
0.000913424
0.000913414
0.000913403
0.000913391
0.00091338
0.000913368
0.000913358
0.000913347
0.000913341
0.000913335
0.00091333
0.000913327
0.000913326
0.000913326
0.000913328
0.000913331
0.000913335
0.000913339
0.000913344
0.000913349
0.000913352
0.000913356
0.000913361
0.000913367
0.000913371
0.000913375
0.000913379
0.000913383
0.000913387
0.000913391
0.000913394
0.000913397
0.000913399
0.000913401
0.000913402
0.000913403
0.000913404
0.000913404
0.00091094
0.00091094
0.000910941
0.000910941
0.000910941
0.000910942
0.000910943
0.000910943
0.000910943
0.000910943
0.000910943
0.000910941
0.00091094
0.000910938
0.000910935
0.000910933
0.00091093
0.000910926
0.000910919
0.000910911
0.000910902
0.000910892
0.000910885
0.000910875
0.000910863
0.00091085
0.000910836
0.000910824
0.000910811
0.000910799
0.000910791
0.000910784
0.000910778
0.000910774
0.000910772
0.000910772
0.000910774
0.000910777
0.000910781
0.000910786
0.000910792
0.000910797
0.0009108
0.000910806
0.000910812
0.000910818
0.000910822
0.000910827
0.000910832
0.000910837
0.000910841
0.000910845
0.000910849
0.000910852
0.000910855
0.000910857
0.000910858
0.000910859
0.000910859
0.00091086
0.000908489
0.000908489
0.000908489
0.00090849
0.00090849
0.000908491
0.000908492
0.000908493
0.000908493
0.000908493
0.000908493
0.000908492
0.000908491
0.000908489
0.000908487
0.000908484
0.000908482
0.000908477
0.000908471
0.000908462
0.000908453
0.000908443
0.000908433
0.000908425
0.000908413
0.000908399
0.000908384
0.000908369
0.000908355
0.000908341
0.000908331
0.000908322
0.000908314
0.000908309
0.000908306
0.000908306
0.000908307
0.00090831
0.000908314
0.000908318
0.000908323
0.000908328
0.000908334
0.000908341
0.000908348
0.000908354
0.000908359
0.000908364
0.00090837
0.000908376
0.00090838
0.000908385
0.000908389
0.000908392
0.000908395
0.000908397
0.000908398
0.000908399
0.0009084
0.0009084
0.000906117
0.000906117
0.000906118
0.000906118
0.000906119
0.00090612
0.000906121
0.000906122
0.000906123
0.000906123
0.000906123
0.000906123
0.000906122
0.000906121
0.000906119
0.000906116
0.000906114
0.000906111
0.000906105
0.000906098
0.000906089
0.000906079
0.00090607
0.000906063
0.000906051
0.000906037
0.000906022
0.000906005
0.000905989
0.000905972
0.000905959
0.000905948
0.000905937
0.00090593
0.000905925
0.000905923
0.000905924
0.000905926
0.000905929
0.000905933
0.000905937
0.000905942
0.000905949
0.000905957
0.000905964
0.00090597
0.000905976
0.000905982
0.000905989
0.000905994
0.000906
0.000906004
0.000906008
0.000906012
0.000906015
0.000906017
0.000906018
0.000906019
0.00090602
0.000906021
0.000903819
0.00090382
0.000903821
0.000903821
0.000903822
0.000903824
0.000903825
0.000903827
0.000903828
0.000903829
0.000903829
0.00090383
0.000903829
0.000903829
0.000903828
0.000903826
0.000903824
0.000903823
0.000903818
0.000903813
0.000903806
0.000903799
0.000903792
0.00090379
0.000903782
0.000903769
0.000903754
0.000903737
0.000903718
0.000903698
0.000903681
0.000903664
0.000903649
0.000903636
0.000903628
0.000903624
0.000903623
0.000903623
0.000903624
0.000903627
0.00090363
0.000903635
0.000903642
0.00090365
0.000903657
0.000903663
0.00090367
0.000903677
0.000903683
0.000903689
0.000903695
0.000903699
0.000903704
0.000903707
0.00090371
0.000903712
0.000903714
0.000903715
0.000903716
0.000903717
0.000901593
0.000901594
0.000901594
0.000901595
0.000901596
0.000901598
0.0009016
0.000901602
0.000901604
0.000901605
0.000901607
0.000901608
0.000901609
0.000901609
0.000901609
0.000901609
0.000901609
0.000901609
0.000901608
0.000901605
0.000901603
0.000901601
0.000901603
0.000901608
0.000901612
0.000901601
0.000901587
0.00090157
0.00090155
0.000901526
0.000901503
0.000901479
0.000901456
0.000901437
0.000901423
0.000901415
0.000901406
0.000901402
0.000901398
0.000901397
0.000901399
0.000901403
0.00090141
0.000901416
0.000901422
0.000901429
0.000901436
0.000901443
0.00090145
0.000901456
0.000901461
0.000901466
0.00090147
0.000901474
0.000901477
0.000901479
0.000901481
0.000901482
0.000901483
0.000901483
0.000899432
0.000899434
0.000899434
0.000899435
0.000899437
0.000899439
0.000899441
0.000899444
0.000899446
0.000899449
0.000899451
0.000899454
0.000899456
0.000899458
0.00089946
0.000899461
0.000899463
0.000899466
0.00089947
0.000899474
0.000899478
0.000899486
0.000899503
0.000899543
0.00090053
0.000900525
0.000900512
0.000900495
0.000900474
0.000900449
0.000900424
0.000900397
0.000900369
0.000900344
0.000900325
0.000900311
0.000899287
0.000899268
0.000899254
0.000899246
0.000899243
0.000899245
0.000899248
0.000899252
0.000899258
0.000899264
0.000899271
0.000899278
0.000899285
0.000899291
0.000899296
0.000899301
0.000899305
0.000899308
0.000899311
0.000899313
0.000899315
0.000899316
0.000899317
0.000899318
0.000897335
0.000897336
0.000897337
0.000897339
0.000897341
0.000897343
0.000897346
0.000897349
0.000897352
0.000897356
0.000897359
0.000897363
0.000897367
0.000897371
0.000897376
0.00089738
0.000897386
0.000897393
0.000897403
0.000897416
0.000897432
0.000897457
0.000897518
0.000898502
0.00089845
0.000898478
0.000898476
0.000898468
0.000898452
0.000898427
0.000898394
0.00089835
0.000898301
0.000898253
0.000898214
0.000898191
0.000898224
0.000897229
0.0008972
0.000897175
0.000897163
0.000897158
0.000897157
0.000897158
0.000897162
0.000897167
0.000897173
0.000897179
0.000897185
0.000897191
0.000897195
0.0008972
0.000897204
0.000897207
0.000897209
0.000897212
0.000897213
0.000897214
0.000897215
0.000897216
0.000895297
0.000895298
0.000895299
0.000895301
0.000895303
0.000895306
0.00089531
0.000895314
0.000895318
0.000895323
0.000895328
0.000895333
0.000895339
0.000895346
0.000895354
0.000895362
0.000895373
0.000895387
0.000895406
0.000895431
0.000895465
0.000895518
0.000895632
0.000896511
0.000896491
0.000897028
0.000897025
0.000897028
0.000897029
0.000897019
0.000896992
0.000896941
0.00089687
0.000896791
0.000896717
0.000896218
0.000896187
0.000895273
0.000895239
0.000895186
0.000895158
0.000895142
0.000895133
0.00089513
0.000895131
0.000895134
0.000895138
0.000895143
0.000895148
0.000895152
0.000895156
0.00089516
0.000895164
0.000895166
0.000895169
0.000895171
0.000895172
0.000895172
0.000895173
0.000895174
0.000893315
0.000893316
0.000893318
0.00089332
0.000893322
0.000893326
0.00089333
0.000893335
0.00089334
0.000893346
0.000893353
0.00089336
0.000893369
0.000893379
0.00089339
0.000893404
0.000893422
0.000893445
0.000893476
0.000893519
0.000893578
0.000893677
0.000893856
0.00089464
0.000894658
0.000895239
0.000895196
0.00089525
0.00089533
0.000895401
0.000895428
0.000895384
0.000895268
0.000895095
0.000894895
0.000894338
0.000894281
0.000893409
0.000893375
0.000893282
0.000893229
0.000893197
0.000893177
0.000893167
0.000893163
0.000893163
0.000893164
0.000893167
0.00089317
0.000893173
0.000893176
0.000893179
0.000893182
0.000893184
0.000893186
0.000893187
0.000893188
0.000893189
0.000893189
0.00089319
0.000891386
0.000891387
0.000891389
0.000891391
0.000891395
0.000891399
0.000891404
0.00089141
0.000891416
0.000891423
0.000891432
0.000891442
0.000891453
0.000891467
0.000891483
0.000891504
0.00089153
0.000891565
0.000891613
0.000891681
0.000891776
0.000891948
0.000892207
0.000892908
0.000893041
0.000893804
0.000893677
0.000893915
0.000894205
0.000894457
0.000894561
0.000894471
0.00089419
0.000893794
0.000893364
0.00089251
0.000892561
0.000891643
0.000891609
0.000891468
0.000891378
0.000891323
0.000891289
0.000891269
0.000891257
0.000891251
0.000891249
0.000891248
0.000891249
0.00089125
0.000891252
0.000891254
0.000891255
0.000891257
0.000891258
0.000891259
0.000891259
0.00089126
0.00089126
0.000891261
0.000889507
0.000889509
0.000889511
0.000889514
0.000889517
0.000889522
0.000889528
0.000889535
0.000889542
0.000889551
0.000889562
0.000889574
0.000889589
0.000889607
0.000889629
0.000889657
0.000889694
0.000889745
0.000889816
0.000889917
0.000890064
0.000890343
0.000890695
0.000891338
0.000891777
0.000892854
0.000892706
0.000893554
0.000894516
0.000895274
0.000895447
0.000895013
0.000894167
0.000893234
0.00089239
0.000890792
0.000891114
0.000889994
0.000889945
0.000889751
0.00088961
0.000889524
0.000889469
0.000889434
0.000889411
0.000889398
0.00088939
0.000889385
0.000889383
0.000889382
0.000889381
0.000889381
0.000889382
0.000889382
0.000889383
0.000889383
0.000889383
0.000889383
0.000889383
0.000889384
0.000887677
0.000887679
0.000887681
0.000887684
0.000887688
0.000887693
0.0008877
0.000887708
0.000887717
0.000887727
0.00088774
0.000887755
0.000887773
0.000887796
0.000887824
0.000887861
0.000887912
0.000887981
0.000888081
0.000888229
0.00088845
0.000888875
0.000889324
0.000889972
0.00089107
0.000892547
0.000892892
0.000895684
0.000899113
0.000901707
0.00090167
0.000899408
0.000896543
0.000894152
0.000892419
0.00088938
0.000890023
0.000888505
0.000888391
0.000888141
0.000887928
0.000887799
0.000887715
0.00088766
0.000887624
0.000887601
0.000887585
0.000887575
0.000887569
0.000887565
0.000887562
0.00088756
0.000887559
0.000887558
0.000887557
0.000887557
0.000887556
0.000887556
0.000887555
0.000887556
0.000885891
0.000885894
0.000885896
0.0008859
0.000885904
0.00088591
0.000885918
0.000885926
0.000885937
0.000885949
0.000885964
0.000885981
0.000886003
0.000886031
0.000886066
0.000886113
0.000886178
0.000886269
0.000886405
0.000886613
0.000886935
0.000887546
0.000888075
0.000888857
0.000891137
0.000893139
0.00089594
0.000905348
0.000919947
0.000903514
0.000928999
0.00091604
0.000904777
0.000897962
0.000894097
0.000888713
0.000889351
0.000887249
0.000886961
0.000886642
0.000886336
0.000886149
0.000886027
0.000885947
0.000885893
0.000885857
0.000885833
0.000885816
0.000885805
0.000885797
0.000885791
0.000885787
0.000885784
0.000885781
0.000885779
0.000885778
0.000885776
0.000885776
0.000885775
0.000885776
0.00088415
0.000884152
0.000884155
0.000884158
0.000884164
0.00088417
0.000884178
0.000884188
0.0008842
0.000884214
0.00088423
0.000884251
0.000884276
0.000884309
0.000884351
0.000884409
0.000884489
0.000884605
0.000884783
0.000885062
0.000885514
0.000886344
0.000886915
0.00088806
0.00089212
0.000895369
0.000906628
0.000804964
0.000365008
0.000256802
0.00029519
0.000508461
0.000927802
0.000906981
0.000898129
0.0008894
0.000889152
0.000886337
0.000885678
0.000885255
0.000884835
0.000884575
0.000884405
0.000884293
0.000884217
0.000884166
0.000884131
0.000884106
0.000884089
0.000884076
0.000884067
0.000884059
0.000884054
0.00088405
0.000884047
0.000884044
0.000884042
0.000884041
0.00088404
0.00088404
0.000882449
0.000882452
0.000882454
0.000882459
0.000882464
0.000882471
0.00088248
0.000882491
0.000882504
0.000882519
0.000882538
0.000882561
0.00088259
0.000882627
0.000882677
0.000882745
0.000882841
0.000882983
0.000883205
0.000883565
0.000884173
0.000885235
0.000885805
0.00088763
0.000894092
0.000900732
0.000934873
0.000372725
0.000167489
9.40577e-05
0.000120193
0.000246448
0.000646291
0.000923472
0.000904882
0.000891979
0.000889496
0.000885884
0.000884581
0.000883979
0.000883423
0.000883074
0.000882846
0.000882695
0.000882594
0.000882525
0.000882477
0.000882443
0.000882418
0.0008824
0.000882386
0.000882376
0.000882368
0.000882362
0.000882357
0.000882354
0.00088235
0.000882348
0.000882347
0.000882348
0.000880788
0.000880791
0.000880794
0.000880798
0.000880804
0.000880812
0.000880821
0.000880833
0.000880847
0.000880864
0.000880885
0.00088091
0.000880942
0.000880984
0.00088104
0.000881117
0.000881229
0.000881397
0.000881664
0.000882106
0.000882885
0.000884178
0.000884729
0.000887554
0.000897106
0.000910108
0.000794135
0.000297556
0.0002617
0.000148531
0.000816807
0.000944139
0.000913818
0.000896607
0.000890503
0.000885997
0.000883723
0.000882813
0.000882099
0.000881643
0.000881348
0.000881151
0.00088102
0.00088093
0.000880867
0.000880822
0.00088079
0.000880766
0.000880748
0.000880734
0.000880723
0.000880715
0.000880709
0.000880704
0.0008807
0.000880697
0.000880695
0.000880696
0.000879164
0.000879167
0.00087917
0.000879175
0.000879181
0.00087919
0.0008792
0.000879212
0.000879227
0.000879246
0.000879268
0.000879295
0.00087933
0.000879376
0.000879437
0.000879523
0.000879649
0.000879839
0.000880148
0.000880668
0.00088162
0.000883129
0.000883796
0.000887816
0.00090123
0.000921226
0.000814324
0.0003826
0.000106718
4.10623e-05
5.17254e-05
0.000812123
0.000959254
0.000924352
0.000903084
0.000892309
0.000886731
0.000883159
0.00088176
0.000880858
0.00088028
0.000879907
0.000879659
0.000879494
0.00087938
0.000879301
0.000879244
0.000879203
0.000879173
0.00087915
0.000879132
0.000879118
0.000879108
0.0008791
0.000879093
0.000879088
0.000879084
0.000879082
0.000879083
0.000877576
0.00087758
0.000877583
0.000877588
0.000877594
0.000877603
0.000877614
0.000877627
0.000877643
0.000877662
0.000877686
0.000877715
0.000877752
0.000877801
0.000877867
0.000877959
0.000878096
0.000878305
0.00087865
0.000879237
0.000880349
0.000882061
0.00088319
0.000888586
0.000906405
0.000932938
0.00107882
0.000726001
0.000139601
0.000832677
0.000316244
0.000923515
0.000400691
0.000952944
0.000937137
0.000911135
0.000895016
0.000888071
0.000882916
0.000880816
0.000879691
0.000878976
0.000878518
0.000878214
0.000878012
0.000877873
0.000877776
0.000877706
0.000877656
0.000877618
0.00087759
0.000877568
0.000877551
0.000877538
0.000877528
0.00087752
0.000877514
0.000877509
0.000877506
0.000877507
0.000876023
0.000876026
0.00087603
0.000876035
0.000876042
0.000876051
0.000876062
0.000876076
0.000876093
0.000876113
0.000876138
0.000876168
0.000876207
0.000876257
0.000876326
0.000876423
0.000876567
0.00087679
0.000877162
0.000877804
0.000879044
0.000880983
0.00088301
0.00088995
0.000912556
0.000946642
0.00113964
0.00110245
0.00033329
0.000251341
0.000315552
0.000681725
0.000790668
0.000845665
0.000952427
0.000920059
0.000898585
0.000889903
0.000882975
0.00087997
0.000878587
0.000877724
0.000877176
0.000876811
0.000876569
0.000876403
0.000876287
0.000876204
0.000876144
0.000876099
0.000876065
0.000876039
0.000876019
0.000876004
0.000875991
0.000875982
0.000875975
0.000875969
0.000875966
0.000875966
0.000874502
0.000874506
0.000874509
0.000874515
0.000874522
0.000874532
0.000874544
0.000874558
0.000874575
0.000874596
0.000874621
0.000874653
0.000874692
0.000874744
0.000874814
0.000874914
0.000875061
0.000875293
0.000875681
0.000876366
0.000877691
0.000879906
0.000883168
0.000891881
0.000919276
0.000963413
0.00119016
0.00136988
0.000908451
0.000274922
0.000144104
0.000387601
0.00103493
0.000770372
0.000967612
0.000928304
0.000902686
0.000891991
0.00088325
0.000879198
0.00087753
0.000876511
0.000875872
0.000875445
0.000875163
0.000874969
0.000874834
0.000874737
0.000874667
0.000874614
0.000874575
0.000874545
0.000874521
0.000874503
0.000874489
0.000874478
0.000874469
0.000874463
0.000874459
0.000874459
0.000873013
0.000873017
0.000873021
0.000873026
0.000873034
0.000873044
0.000873056
0.000873071
0.000873089
0.00087311
0.000873136
0.000873168
0.000873208
0.00087326
0.00087333
0.000873429
0.000873577
0.000873815
0.000874213
0.00087493
0.000876297
0.00087881
0.000883395
0.000894088
0.000926327
0.000980308
0.00128251
0.00198375
0.00262262
0.00172191
0.000534345
0.000519272
0.000840509
0.000762772
0.000981929
0.000934275
0.000906733
0.000894007
0.000883597
0.000878462
0.000876505
0.000875328
0.000874599
0.00087411
0.000873787
0.000873566
0.000873412
0.000873301
0.000873221
0.000873161
0.000873116
0.000873082
0.000873055
0.000873034
0.000873018
0.000873006
0.000872996
0.000872989
0.000872985
0.000872985
0.000871555
0.000871559
0.000871562
0.000871568
0.000871576
0.000871586
0.000871599
0.000871614
0.000871632
0.000871654
0.00087168
0.000871712
0.000871751
0.000871802
0.000871871
0.00087197
0.00087212
0.00087236
0.000872761
0.000873501
0.000874882
0.000877655
0.00088336
0.000895927
0.000932397
0.00100688
0.00297506
0.00965971
0.0130102
0.0107099
0.00203825
0.000578103
0.00067677
0.000761549
0.00100086
0.000936801
0.000910315
0.000895683
0.000883874
0.000877723
0.000875494
0.000874164
0.00087335
0.0008728
0.00087244
0.000872192
0.000872019
0.000871895
0.000871805
0.000871739
0.000871688
0.00087165
0.00087162
0.000871597
0.000871579
0.000871565
0.000871554
0.000871546
0.000871541
0.000871541
0.000870125
0.000870129
0.000870133
0.000870139
0.000870147
0.000870158
0.000870171
0.000870186
0.000870204
0.000870226
0.000870252
0.000870284
0.000870322
0.000870372
0.000870442
0.00087054
0.000870689
0.000870929
0.00087133
0.000872083
0.000873473
0.00087642
0.000882868
0.000897046
0.000936804
0.00120284
0.0117345
0.0186073
0.010333
0.00426074
0.000795761
0.000534935
0.000580335
0.000776499
0.00102653
0.000937632
0.000913138
0.000896788
0.000883958
0.00087696
0.000874484
0.000873012
0.00087212
0.000871512
0.000871115
0.000870842
0.000870652
0.000870516
0.000870417
0.000870344
0.000870289
0.000870246
0.000870214
0.000870188
0.000870168
0.000870153
0.000870141
0.000870133
0.000870127
0.000870127
0.000868724
0.000868728
0.000868732
0.000868738
0.000868746
0.000868757
0.00086877
0.000868786
0.000868805