/*--------------------------------*- C++ -*----------------------------------*\
  =========                 |
  \\      /  F ield         | OpenFOAM: The Open Source CFD Toolbox
   \\    /   O peration     | Website:  https://openfoam.org
    \\  /    A nd           | Version:  12
     \\/     M anipulation  |
\*---------------------------------------------------------------------------*/
FoamFile
{
    format      ascii;
    class       volScalarField;
    location    "280";
    object      omega;
}
// * * * * * * * * * * * * * * * * * * * * * * * * * * * * * * * * * * * * * //

dimensions      [0 0 -1 0 0 0 0];

internalField   nonuniform List<scalar> 
16227
(
9.34702
9.34704
9.34704
9.34707
9.34706
9.3471
9.34709
9.34708
9.34707
9.34709
9.34713
9.34715
9.3472
9.3472
9.3472
9.3472
9.3472
9.3472
9.3472
9.3472
9.3472
9.3472
9.3472
9.3472
9.3472
9.3472
9.3472
9.34722
9.34722
9.3472
9.34721
9.3472
9.3472
9.3472
9.34721
9.3472
9.3472
9.3472
9.3472
9.3472
9.3472
9.3472
9.3472
9.3472
9.3472
9.3472
9.3472
9.34719
9.34717
9.34717
9.34717
9.34716
9.3471
9.3471
9.34706
9.34705
9.34707
9.34705
9.34703
9.34702
8.71806
8.71808
8.71808
8.71811
8.71811
8.71815
8.71814
8.71811
8.71812
8.71813
8.71819
8.71821
8.71835
8.7184
8.71841
8.71841
8.71841
8.71841
8.71841
8.71841
8.71842
8.71844
8.71844
8.71843
8.71843
8.71843
8.71843
8.71843
8.71841
8.71836
8.71841
8.71842
8.71842
8.71842
8.71842
8.71841
8.7184
8.7184
8.7184
8.7184
8.7184
8.7184
8.7184
8.71838
8.71838
8.71837
8.71837
8.71837
8.71837
8.71836
8.71833
8.71828
8.71817
8.71816
8.71812
8.7181
8.71814
8.71806
8.71807
8.71805
8.16623
8.16625
8.16625
8.16627
8.16626
8.16635
8.1663
8.16629
8.1663
8.16631
8.16636
8.16637
8.16662
8.16668
8.16669
8.1667
8.16669
8.16669
8.16671
8.16666
8.16669
8.1667
8.16669
8.16669
8.16668
8.16667
8.16667
8.16667
8.16665
8.16658
8.16663
8.16664
8.16664
8.16664
8.16664
8.16664
8.16664
8.16663
8.16661
8.16662
8.16662
8.16662
8.16661
8.1666
8.1666
8.1666
8.1666
8.1666
8.16659
8.16657
8.16653
8.16635
8.16627
8.16626
8.16624
8.16624
8.16627
8.16618
8.16619
8.16617
7.67839
7.67841
7.67842
7.67843
7.67843
7.6785
7.6785
7.67847
7.67848
7.67848
7.67852
7.67858
7.67884
7.67891
7.67892
7.67894
7.67894
7.67895
7.67889
7.67876
7.67886
7.67889
7.67888
7.67888
7.67887
7.67886
7.67884
7.67883
7.6788
7.6787
7.67876
7.67877
7.67876
7.67875
7.67875
7.67875
7.67875
7.67874
7.67874
7.67873
7.67874
7.67873
7.67873
7.67874
7.67873
7.67873
7.67874
7.67873
7.67874
7.67871
7.6786
7.67842
7.67832
7.67835
7.67834
7.67836
7.67834
7.67827
7.67827
7.67825
7.24423
7.24424
7.24425
7.24427
7.24427
7.24433
7.24436
7.2443
7.24432
7.24432
7.24436
7.24442
7.24466
7.24479
7.2448
7.2448
7.2448
7.24477
7.24456
7.24448
7.24466
7.24471
7.24469
7.24466
7.24463
7.24461
7.24458
7.24455
7.24451
7.24439
7.24445
7.24446
7.24445
7.24443
7.24442
7.24441
7.24441
7.24442
7.24441
7.24441
7.24442
7.24444
7.24443
7.24443
7.24444
7.24445
7.24446
7.24446
7.24447
7.24439
7.24416
7.24406
7.24399
7.24402
7.24405
7.2441
7.24404
7.24397
7.24397
7.24395
6.85548
6.85551
6.8555
6.85552
6.85552
6.85557
6.85562
6.85557
6.85555
6.85556
6.85557
6.85561
6.85572
6.856
6.85606
6.85607
6.85606
6.85595
6.8557
6.85565
6.85584
6.85588
6.85584
6.85579
6.85575
6.85571
6.85566
6.85561
6.85554
6.85541
6.85546
6.85545
6.85544
6.85542
6.85541
6.8554
6.8554
6.8554
6.8554
6.85541
6.85542
6.85543
6.85544
6.85547
6.85547
6.85549
6.85551
6.85552
6.85553
6.8554
6.85518
6.85507
6.85504
6.8551
6.85515
6.85515
6.8551
6.85504
6.85504
6.85503
6.5055
6.50552
6.50552
6.50553
6.50554
6.50558
6.50563
6.50561
6.50558
6.50557
6.50556
6.50557
6.50567
6.50593
6.50605
6.50606
6.50602
6.50572
6.50558
6.50556
6.50574
6.50575
6.50569
6.50562
6.50556
6.50548
6.50541
6.50534
6.50525
6.50509
6.50513
6.50511
6.50508
6.50505
6.50504
6.50503
6.50502
6.50503
6.50504
6.50507
6.50508
6.50511
6.50514
6.50516
6.5052
6.50522
6.50524
6.50527
6.50521
6.50497
6.50486
6.50479
6.50481
6.50489
6.50491
6.50492
6.50488
6.50483
6.50484
6.50482
6.18886
6.18886
6.18887
6.18889
6.18888
6.18892
6.18897
6.18897
6.18893
6.1889
6.18888
6.18885
6.1889
6.18902
6.1893
6.18937
6.18929
6.18894
6.1888
6.18876
6.18894
6.18892
6.18883
6.18873
6.18862
6.18852
6.18842
6.18832
6.18819
6.18801
6.18804
6.188
6.18796
6.18792
6.1879
6.18789
6.18789
6.1879
6.18792
6.18795
6.188
6.18802
6.18807
6.18811
6.18816
6.18819
6.18824
6.18826
6.18816
6.18793
6.18784
6.18782
6.18789
6.18795
6.18796
6.18797
6.18794
6.1879
6.18792
6.1879
5.90108
5.90108
5.90109
5.90109
5.9011
5.90113
5.90116
5.90116
5.90116
5.90111
5.90107
5.90102
5.90103
5.90112
5.90145
5.90152
5.90135
5.901
5.90087
5.9008
5.90095
5.9009
5.90077
5.90063
5.90049
5.90036
5.90021
5.90008
5.89993
5.89971
5.89971
5.89965
5.8996
5.89955
5.89952
5.89951
5.89952
5.89954
5.89957
5.89961
5.89966
5.89973
5.89978
5.89984
5.8999
5.89998
5.90002
5.89999
5.89976
5.89968
5.89963
5.8997
5.89975
5.89981
5.89983
5.89985
5.89984
5.8998
5.89981
5.89981
5.63844
5.63845
5.63844
5.63846
5.63845
5.63848
5.63852
5.63851
5.6385
5.63848
5.63842
5.63835
5.63835
5.63844
5.63869
5.63876
5.63842
5.63819
5.63805
5.63797
5.63808
5.638
5.63783
5.63764
5.63746
5.63728
5.6371
5.63691
5.63672
5.63647
5.63645
5.63636
5.63629
5.63623
5.6362
5.63619
5.6362
5.63623
5.63628
5.63633
5.6364
5.63648
5.63657
5.63666
5.63674
5.63683
5.63689
5.63685
5.63662
5.63656
5.63659
5.63665
5.63671
5.63678
5.63682
5.63685
5.63683
5.63682
5.63682
5.63683
5.39784
5.39785
5.39785
5.39786
5.39786
5.39788
5.39791
5.39789
5.39788
5.39786
5.39782
5.39772
5.39767
5.3977
5.39779
5.39796
5.39764
5.39742
5.39727
5.39715
5.39717
5.39708
5.39688
5.39665
5.39641
5.39618
5.39594
5.39572
5.39548
5.39519
5.39513
5.39503
5.39493
5.39486
5.39483
5.39482
5.39484
5.39488
5.39494
5.39503
5.39512
5.39522
5.39533
5.39544
5.39556
5.39565
5.39567
5.39559
5.39549
5.39547
5.39553
5.3956
5.39568
5.39577
5.39581
5.39585
5.39585
5.39583
5.39585
5.39585
5.17667
5.17668
5.17668
5.17668
5.17668
5.17671
5.17672
5.17672
5.17669
5.17666
5.17662
5.17653
5.17644
5.17641
5.17645
5.17658
5.17631
5.17609
5.17588
5.17571
5.17555
5.17552
5.17531
5.17503
5.17473
5.17444
5.17415
5.17387
5.17358
5.17325
5.17316
5.17302
5.17291
5.17283
5.17278
5.17278
5.1728
5.17287
5.17294
5.17305
5.17318
5.1733
5.17345
5.1736
5.17373
5.17381
5.17375
5.17377
5.17376
5.17377
5.17385
5.17395
5.17404
5.17413
5.17419
5.17424
5.17425
5.17424
5.17427
5.17427
4.97269
4.9727
4.9727
4.9727
4.9727
4.97272
4.97273
4.97272
4.9727
4.97266
4.97262
4.97252
4.97243
4.97232
4.97226
4.97222
4.97212
4.97194
4.9717
4.97146
4.97122
4.97117
4.97091
4.97057
4.9702
4.96984
4.96949
4.96915
4.96881
4.96843
4.96829
4.96812
4.96799
4.9679
4.96785
4.96785
4.96789
4.96797
4.96808
4.96821
4.96837
4.96854
4.96871
4.96889
4.96904
4.96912
4.9691
4.96918
4.96919
4.96924
4.96935
4.96946
4.96957
4.96967
4.96975
4.9698
4.96982
4.96983
4.96985
4.96986
4.784
4.78402
4.78401
4.78402
4.78402
4.78403
4.78404
4.78403
4.784
4.78397
4.78391
4.78381
4.78371
4.78359
4.78345
4.78337
4.78329
4.78308
4.78281
4.78252
4.78222
4.78211
4.78178
4.78136
4.78093
4.7805
4.78007
4.77966
4.77925
4.77882
4.77864
4.77844
4.77828
4.77817
4.77813
4.77813
4.7782
4.77829
4.77844
4.77861
4.7788
4.77901
4.77922
4.77942
4.77954
4.77961
4.77972
4.77983
4.77989
4.77999
4.78011
4.78025
4.78037
4.78049
4.78058
4.78065
4.78068
4.78069
4.78072
4.78073
4.60898
4.60899
4.60899
4.60899
4.60899
4.60901
4.60902
4.609
4.60898
4.60893
4.60887
4.60877
4.60866
4.60852
4.60837
4.60825
4.60815
4.6079
4.60758
4.60724
4.60687
4.6067
4.6063
4.6058
4.60528
4.60477
4.60426
4.60377
4.60329
4.6028
4.60257
4.60233
4.60215
4.60203
4.60198
4.602
4.60208
4.60222
4.60239
4.60261
4.60284
4.60309
4.60334
4.60354
4.60361
4.60379
4.60396
4.60412
4.60424
4.60436
4.60453
4.60468
4.60482
4.60496
4.60506
4.60514
4.60518
4.60521
4.60524
4.60524
4.44621
4.44622
4.44622
4.44623
4.44622
4.44624
4.44625
4.44623
4.44621
4.44616
4.44609
4.44598
4.44586
4.44571
4.44555
4.44541
4.44526
4.44498
4.44461
4.44421
4.44379
4.44348
4.44304
4.44246
4.44185
4.44124
4.44065
4.44007
4.43951
4.43895
4.43866
4.43839
4.43818
4.43805
4.43801
4.43805
4.43815
4.43833
4.43854
4.4388
4.43908
4.43938
4.43967
4.43988
4.44001
4.44023
4.44045
4.44062
4.44079
4.44097
4.44118
4.44136
4.44152
4.44167
4.44178
4.44187
4.44192
4.44195
4.44199
4.442
4.29446
4.29447
4.29448
4.29448
4.29448
4.2945
4.29451
4.29449
4.29447
4.29442
4.29435
4.29424
4.29411
4.29395
4.29377
4.2936
4.29343
4.2931
4.29268
4.2922
4.2917
4.29119
4.29077
4.29014
4.28943
4.28871
4.28801
4.28734
4.28669
4.28606
4.2857
4.28538
4.28515
4.28501
4.28498
4.28503
4.28518
4.28539
4.28566
4.28597
4.28631
4.28665
4.28692
4.28714
4.2874
4.2877
4.28798
4.28818
4.28838
4.28863
4.28885
4.28905
4.28923
4.2894
4.28953
4.28963
4.28969
4.28973
4.28977
4.28978
4.15267
4.15268
4.15269
4.15269
4.1527
4.15272
4.15273
4.15271
4.15269
4.15265
4.15258
4.15246
4.15233
4.15216
4.15196
4.15177
4.15156
4.15121
4.15074
4.15019
4.1496
4.14897
4.14848
4.14777
4.14695
4.14611
4.14529
4.1445
4.14375
4.14304
4.14262
4.14225
4.14198
4.14184
4.14182
4.14191
4.14209
4.14235
4.14269
4.14306
4.14346
4.14382
4.14405
4.1444
4.14476
4.14513
4.14545
4.1457
4.14595
4.14623
4.14648
4.14671
4.1469
4.14709
4.14723
4.14734
4.14741
4.14746
4.1475
4.14753
4.0199
4.01991
4.01992
4.01993
4.01994
4.01996
4.01998
4.01997
4.01995
4.01991
4.01984
4.01973
4.01958
4.01941
4.0192
4.01898
4.01874
4.01835
4.01785
4.01724
4.01657
4.01585
4.01521
4.01441
4.01348
4.0125
4.01155
4.01063
4.00977
4.00895
4.00846
4.00804
4.00775
4.0076
4.0076
4.00773
4.00796
4.00829
4.00868
4.00912
4.00958
4.00999
4.0103
4.01073
4.01117
4.01158
4.01191
4.01222
4.01255
4.01286
4.01314
4.01339
4.01361
4.01381
4.01396
4.01409
4.01416
4.01422
4.01427
4.01429
3.89533
3.89534
3.89535
3.89536
3.89538
3.89541
3.89543
3.89542
3.89541
3.89537
3.89531
3.8952
3.89506
3.89489
3.89467
3.89442
3.89414
3.89374
3.89319
3.89253
3.89177
3.89094
3.89006
3.88924
3.8882
3.88708
3.88597
3.88491
3.88391
3.88299
3.88241
3.88193
3.88162
3.88148
3.8815
3.88167
3.88196
3.88236
3.88281
3.88329
3.88379
3.88426
3.88474
3.88526
3.88578
3.88623
3.88661
3.88698
3.88736
3.88771
3.88801
3.88829
3.88853
3.88874
3.88891
3.88903
3.88912
3.88918
3.88924
3.88927
3.77822
3.77824
3.77826
3.77827
3.77829
3.77832
3.77835
3.77836
3.77835
3.77832
3.77827
3.77817
3.77804
3.77786
3.77762
3.77733
3.77702
3.77662
3.77605
3.77535
3.77451
3.77357
3.77255
3.77162
3.77042
3.76913
3.76784
3.76661
3.76545
3.7644
3.76373
3.76319
3.76285
3.76272
3.76278
3.76301
3.76338
3.76384
3.76436
3.76494
3.76546
3.76605
3.76668
3.7673
3.76787
3.76834
3.76879
3.76924
3.76966
3.77004
3.77038
3.77067
3.77093
3.77115
3.77133
3.77147
3.77157
3.77164
3.77169
3.77172
3.66794
3.66797
3.66798
3.66801
3.66803
3.66807
3.6681
3.66813
3.66813
3.66811
3.66807
3.66799
3.66786
3.66769
3.66745
3.66715
3.66681
3.66641
3.66581
3.66505
3.66415
3.66312
3.66198
3.66087
3.65953
3.65804
3.65654
3.6551
3.65376
3.65257
3.65177
3.65117
3.65081
3.6507
3.6508
3.6511
3.65153
3.65208
3.65272
3.65341
3.65405
3.65476
3.65549
3.65618
3.65681
3.65734
3.65785
3.65836
3.65882
3.65923
3.65959
3.6599
3.66018
3.66042
3.6606
3.66075
3.66086
3.66093
3.66099
3.66102
3.56392
3.56394
3.56396
3.56399
3.56402
3.56407
3.56412
3.56415
3.56417
3.56417
3.56414
3.56407
3.56396
3.5638
3.56358
3.56328
3.56293
3.5625
3.5619
3.56111
3.56015
3.55902
3.55777
3.55643
3.55502
3.55329
3.55155
3.54987
3.54832
3.54694
3.54602
3.54536
3.54498
3.54489
3.54506
3.54545
3.54588
3.54653
3.54724
3.54806
3.5489
3.54975
3.55058
3.55133
3.552
3.55262
3.55321
3.55377
3.55427
3.5547
3.55509
3.55542
3.55571
3.55595
3.55615
3.55631
3.55642
3.5565
3.55656
3.55659
3.46563
3.46566
3.46568
3.46571
3.46576
3.46581
3.46587
3.46592
3.46596
3.46598
3.46597
3.46592
3.46583
3.46569
3.46549
3.46519
3.46481
3.46436
3.46378
3.463
3.462
3.46081
3.45948
3.45872
3.50422
3.5024
3.50049
3.49865
3.49695
3.49545
3.49445
3.49374
3.49335
3.49328
3.49348
3.49391
3.44613
3.4467
3.44758
3.44856
3.44956
3.45054
3.45145
3.45225
3.45299
3.45371
3.45437
3.45497
3.45549
3.45596
3.45636
3.45671
3.457
3.45726
3.45747
3.45763
3.45775
3.45783
3.45789
3.45792
3.37262
3.37265
3.37268
3.37272
3.37277
3.37284
3.37292
3.37298
3.37303
3.37307
3.37309
3.37307
3.37301
3.3729
3.37272
3.37245
3.37208
3.37161
3.37103
3.37029
3.3693
3.3681
3.36744
3.41086
3.40701
3.40512
3.40286
3.40065
3.39863
3.39685
3.39564
3.39482
3.3944
3.39435
3.39463
3.39511
3.39738
3.35247
3.35333
3.35446
3.35559
3.35668
3.35767
3.35856
3.35938
3.36016
3.36087
3.3615
3.36206
3.36254
3.36296
3.36332
3.36362
3.36389
3.36409
3.36426
3.36438
3.36446
3.36452
3.36456
3.28448
3.28451
3.28455
3.2846
3.28466
3.28474
3.28483
3.28491
3.28499
3.28505
3.2851
3.28511
3.28508
3.28501
3.28487
3.28464
3.2843
3.28386
3.28331
3.2826
3.28164
3.28049
3.28041
3.31931
3.31544
3.33558
3.333
3.33047
3.32817
3.32616
3.32483
3.32394
3.3235
3.32348
3.3238
3.30182
3.30388
3.26314
3.26405
3.26532
3.26658
3.26776
3.26882
3.2698
3.27072
3.27156
3.27231
3.27297
3.27354
3.27404
3.27447
3.27484
3.27515
3.27542
3.27563
3.27579
3.27591
3.276
3.27606
3.2761
3.20083
3.20087
3.20091
3.20097
3.20104
3.20114
3.20124
3.20134
3.20145
3.20154
3.20162
3.20166
3.20168
3.20165
3.20156
3.20139
3.20111
3.20072
3.2002
3.19953
3.19867
3.19769
3.19817
3.23287
3.22905
3.24707
3.24395
3.24095
3.23828
3.23608
3.2346
3.23367
3.23325
3.23321
3.23335
3.21349
3.21528
3.17849
3.17944
3.18081
3.18217
3.18342
3.18458
3.18566
3.18665
3.18754
3.18832
3.189
3.18959
3.1901
3.19054
3.19091
3.19122
3.19148
3.19169
3.19186
3.19198
3.19206
3.19212
3.19217
3.12135
3.12139
3.12144
3.12151
3.12159
3.1217
3.12182
3.12195
3.12207
3.1222
3.12231
3.1224
3.12246
3.12249
3.12246
3.12235
3.12216
3.12185
3.12141
3.12082
3.12008
3.11939
3.12043
3.15133
3.14769
3.16387
3.16001
3.15674
3.15387
3.15155
3.14997
3.14894
3.14838
3.14814
3.14816
3.12948
3.13157
3.09824
3.09918
3.10063
3.10206
3.10341
3.10468
3.10583
3.10687
3.10778
3.10858
3.10927
3.10987
3.11038
3.11082
3.11119
3.11149
3.11176
3.11197
3.11213
3.11224
3.11232
3.11238
3.11243
3.04573
3.04577
3.04583
3.0459
3.046
3.04612
3.04627
3.04641
3.04656
3.04672
3.04687
3.047
3.04712
3.04721
3.04725
3.04723
3.04713
3.04695
3.04664
3.0462
3.04563
3.04533
3.04692
3.07443
3.07153
3.08615
3.08132
3.0788
3.07662
3.07474
3.07294
3.07121
3.06976
3.06881
3.06853
3.05
3.05274
3.02216
3.02299
3.02451
3.02603
3.02748
3.02882
3.03001
3.03107
3.03199
3.03279
3.03349
3.03408
3.03459
3.03502
3.03538
3.03568
3.03593
3.03614
3.03629
3.03641
3.03648
3.03654
3.03658
2.97369
2.97374
2.9738
2.97388
2.97399
2.97413
2.97429
2.97446
2.97464
2.97483
2.97502
2.9752
2.97537
2.97553
2.97565
2.97573
2.97575
2.9757
2.97558
2.97537
2.97511
2.97533
2.97739
3.002
3.00083
3.01379
3.0095
3.01051
3.01302
3.01437
3.01147
3.00563
3.00008
2.99675
2.99521
2.97533
2.97872
2.95014
2.95077
2.95236
2.9539
2.95538
2.95673
2.95792
2.95898
2.9599
2.96069
2.96137
2.96196
2.96245
2.96286
2.96321
2.9635
2.96374
2.96393
2.96408
2.96419
2.96426
2.96431
2.96436
2.90498
2.90504
2.9051
2.9052
2.90532
2.90547
2.90565
2.90584
2.90605
2.90628
2.90651
2.90674
2.90697
2.90719
2.9074
2.90758
2.90774
2.90786
2.90796
2.90806
2.90823
2.90915
2.91158
2.93388
2.9359
2.94763
2.9485
2.96413
2.99158
3.0137
3.00248
2.97141
2.94728
2.93488
2.92954
2.90649
2.90943
2.8822
2.88236
2.88396
2.88542
2.88686
2.88817
2.88934
2.89037
2.89126
2.89203
2.89268
2.89324
2.89371
2.89411
2.89443
2.8947
2.89493
2.89511
2.89525
2.89534
2.89541
2.89546
2.89551
2.83938
2.83945
2.83952
2.83962
2.83975
2.83992
2.84012
2.84033
2.84057
2.84083
2.8411
2.84138
2.84166
2.84196
2.84226
2.84255
2.84285
2.84316
2.84351
2.84398
2.8447
2.84648
2.84928
2.87011
2.87672
2.88941
2.91021
2.98635
3.18431
3.41544
3.30361
3.05588
2.93188
2.88829
2.87308
2.84459
2.8448
2.81854
2.81764
2.81909
2.82038
2.82171
2.82294
2.82404
2.82501
2.82585
2.82657
2.82719
2.82771
2.82815
2.82851
2.82881
2.82907
2.82927
2.82944
2.82956
2.82965
2.82971
2.82975
2.8298
2.77668
2.77675
2.77683
2.77694
2.77708
2.77726
2.77748
2.77772
2.77798
2.77827
2.77858
2.7789
2.77925
2.77962
2.78
2.7804
2.78084
2.78134
2.78197
2.78283
2.78419
2.78689
2.79003
2.81065
2.8235
2.8425
2.92033
3.26794
4.54317
9.16426
7.2089
3.84914
3.00589
2.86184
2.82594
2.79082
2.7851
2.75913
2.7565
2.75754
2.75857
2.75971
2.7608
2.7618
2.76268
2.76345
2.76411
2.76467
2.76514
2.76554
2.76587
2.76614
2.76637
2.76655
2.76669
2.76681
2.76688
2.76693
2.76697
2.76702
2.7167
2.71677
2.71685
2.71697
2.71712
2.71732
2.71755
2.7178
2.7181
2.71841
2.71876
2.71913
2.71953
2.71996
2.72042
2.72093
2.7215
2.72218
2.72307
2.72433
2.72636
2.72995
2.7334
2.75489
2.77569
2.80851
3.00117
4.11262
14.0583
13.0879
3.24631
2.85203
2.78674
2.74492
2.73027
2.70402
2.69885
2.69911
2.69978
2.70066
2.70155
2.7024
2.70317
2.70384
2.70442
2.70491
2.70533
2.70568
2.70597
2.70621
2.7064
2.70656
2.70669
2.70679
2.70685
2.7069
2.70693
2.70698
2.65924
2.65932
2.6594
2.65953
2.65969
2.6599
2.66015
2.66042
2.66074
2.66108
2.66146
2.66186
2.66231
2.6628
2.66333
2.66393
2.66462
2.66547
2.66658
2.66819
2.67083
2.67518
2.67916
2.70198
2.73247
2.78045
3.11125
4.8763
121.489
254.633
251.337
3.92048
2.85611
2.75343
2.70598
2.68046
2.65315
2.6447
2.6437
2.64389
2.64443
2.64507
2.64573
2.64634
2.6469
2.64738
2.64779
2.64814
2.64843
2.64868
2.64887
2.64904
2.64917
2.64927
2.64935
2.6494
2.64944
2.64947
2.64951
2.60417
2.60425
2.60434
2.60447
2.60464
2.60486
2.60512
2.60541
2.60574
2.60611
2.60652
2.60696
2.60744
2.60798
2.60857
2.60923
2.61002
2.61099
2.61228
2.61415
2.61726
2.62224
2.62738
2.65188
2.69257
2.75401
3.19253
5.02932
76.1653
178.41
189.017
188.229
14.4555
2.95386
2.72805
2.67276
2.6355
2.60618
2.59386
2.59109
2.59067
2.5908
2.59115
2.59158
2.59202
2.59243
2.5928
2.59312
2.59339
2.59362
2.59381
2.59396
2.59409
2.59419
2.59427
2.59433
2.59436
2.59439
2.59441
2.59445
2.55132
2.55141
2.5515
2.55164
2.55182
2.55204
2.55231
2.55262
2.55297
2.55336
2.55379
2.55426
2.55477
2.55534
2.55598
2.55669
2.55753
2.55857
2.55996
2.56199
2.56538
2.57091
2.5779
2.60424
2.65482
2.73114
3.21582
4.79721
23.9465
102.033
120.871
115.846
41.3378
3.7817
2.7164
2.64337
2.59489
2.56255
2.54601
2.54104
2.5399
2.53956
2.53958
2.53976
2.54
2.54026
2.54051
2.54073
2.54092
2.54108
2.54121
2.54132
2.5414
2.54147
2.54152
2.54156
2.54158
2.54159
2.54161
2.54165
2.50057
2.50066
2.50076
2.5009
2.50108
2.50132
2.5016
2.50192
2.50228
2.50269
2.50314
2.50363
2.50417
2.50476
2.50541
2.50615
2.50699
2.50803
2.50946
2.51157
2.51511
2.52114
2.53044
2.55885
2.61785
2.71329
3.21618
4.6778
10.3519
40.0218
66.9869
88.3026
63.8966
6.43438
2.72993
2.61436
2.55753
2.52145
2.50072
2.49328
2.49136
2.49053
2.49019
2.4901
2.49014
2.49023
2.49035
2.49046
2.49057
2.49066
2.49073
2.49079
2.49084
2.49087
2.4909
2.49091
2.49092
2.49092
2.49093
2.49097
2.45179
2.45189
2.45198
2.45213
2.45232
2.45256
2.45285
2.45318
2.45356
2.45398
2.45444
2.45494
2.45549
2.45609
2.45674
2.45744
2.45827
2.45934
2.46077
2.46291
2.46643
2.47287
2.48433
2.515
2.58121
2.69381
3.29085
5.31571
8.27926
13.4537
26.085
60.363
69.6827
8.88533
2.77011
2.58181
2.52183
2.48198
2.45745
2.44754
2.44482
2.44347
2.44279
2.44243
2.44227
2.4422
2.44219
2.4422
2.44221
2.44223
2.44225
2.44226
2.44226
2.44227
2.44227
2.44226
2.44226
2.44224
2.44224
2.44228
2.40487
2.40497
2.40507
2.40522
2.40541
2.40566
2.40596
2.4063
2.40668
2.40711
2.40758
2.40809
2.40863
2.40919
2.40982
2.41055
2.41141
2.41248
2.41387
2.41597
2.41934
2.42601
2.43903
2.47147
2.5428
2.69215
4.62477
10.7065
11.5074
12.4934
20.6111
59.0038
65.5291
9.15906
2.78469
2.54361
2.48651
2.44317
2.41564
2.40349
2.40001
2.39818
2.39719
2.39659
2.39624
2.39602
2.39588
2.39579
2.39573
2.39568
2.39564
2.3956
2.39557
2.39554
2.39551
2.39549
2.39546
2.39544
2.39543
2.39547
2.35971
2.3598
2.3599
2.36006
2.36026
2.36051
2.36081
2.36116
2.36155
2.36198
2.36245
2.36295
2.36347
2.36404
2.3647
2.36543
2.36628
2.36732
2.36865
2.37067
2.37386
2.38055
2.39422
2.4278
2.50108
2.86767
8.4699
13.0031
13.0681
17.548
33.5678
64.3857
55.675
8.32641
2.78603
2.50294
2.45084
2.40461
2.37489
2.36096
2.35685
2.35461
2.35329
2.35244
2.35192
2.35156
2.35131
2.35113
2.35099
2.35087
2.35078
2.3507
2.35063
2.35058
2.35053
2.35048
2.35044
2.35041
2.35039
2.35042
2.31619
2.31629
2.3164
2.31655
2.31675
2.31701
2.31732
2.31767
2.31806
2.31849
2.31893
2.31942
2.31996
2.32057
2.32122
2.32195
2.32278
2.32378
2.32505
2.32698
2.33001
2.3366
2.35033
2.38492
2.48095
3.48916
10.5902
16.058
19.0122
28.6838
46.7682
63.8187
43.9785
7.09194
2.77774
2.46529
2.41586
2.36605
2.33494
2.31983
2.31513
2.31253
2.31096
2.30987
2.30917
2.30869
2.30836
2.3081
2.30789
2.30772
2.30758
2.30746
2.30736
2.30728
2.3072
2.30714
2.30709
2.30705
2.30702
2.30705
2.27424
2.27434
2.27445
2.2746
2.27481
2.27507
2.27538
2.27573
2.27612
2.27653
2.27698
2.27749
2.27805
2.27865
2.27931
2.28002
2.28083
2.28179
2.283
2.28484
2.28775
2.29421
2.30773
2.34346
2.50616
4.29022
11.3096
20.1357
27.2517
38.8106
53.278
58.2323
33.4471
5.92079
2.74797
2.4328
2.38122
2.32733
2.29568
2.28
2.27478
2.27183
2.27005
2.2688
2.26794
2.26733
2.26691
2.2666
2.26634
2.26612
2.26594
2.26578
2.26565
2.26555
2.26545
2.26538
2.26531
2.26526
2.26523
2.26526
2.23377
2.23388
2.23398
2.23414
2.23435
2.23461
2.23492
2.23526
2.23564
2.23605
2.23653
2.23705
2.23761
2.23822
2.23886
2.23957
2.24035
2.24129
2.24245
2.24419
2.24707
2.25336
2.26677
2.30389
2.56885
4.94821
11.3995
22.7236
34.221
45.1833
54.1524
50.1092
24.9687
4.98534
2.70075
2.40472
2.34628
2.2887
2.25708
2.2413
2.23565
2.23249
2.23044
2.22907
2.22811
2.22741
2.2269
2.22653
2.22623
2.22598
2.22576
2.22558
2.22542
2.2253
2.22519
2.2251
2.22502
2.22496
2.22493
2.22495
2.19471
2.19481
2.19492
2.19507
2.19528
2.19554
2.19583
2.19617
2.19656
2.197
2.19749
2.19801
2.19857
2.19918
2.19982
2.20052
2.20129
2.2022
2.20333
2.20501
2.20788
2.21396
2.22768
2.26671
2.65171
5.40056
11.1909
23.3343
38.3712
47.8593
51.4038
42.0239
18.6173
4.28646
2.65624
2.37914
2.31083
2.25054
2.2192
2.20363
2.19763
2.19437
2.19214
2.19062
2.18955
2.18877
2.18824
2.18782
2.18749
2.18722
2.18698
2.18677
2.1866
2.18645
2.18633
2.18622
2.18614
2.18607
2.18604
2.18606
2.15697
2.15707
2.15718
2.15734
2.15754
2.15779
2.15808
2.15844
2.15884
2.15929
2.15977
2.1603
2.16086
2.16147
2.16211
2.1628
2.16357
2.16444
2.16554
2.16722
2.17008
2.17597
2.19061
2.23237
2.74341
5.68243
10.8467
22.8367
39.7814
47.7475
46.9975
35.011
14.1017
3.77539
2.62618
2.35434
2.27519
2.21325
2.1821
2.16693
2.16066
2.15737
2.15502
2.15343
2.15229
2.15146
2.15084
2.1504
2.15004
2.14975
2.1495
2.14928
2.14909
2.14893
2.1488
2.14869
2.14859
2.14852
2.14848
2.1485
2.12049
2.1206
2.1207
2.12086
2.12106
2.12131
2.12161
2.12197
2.12238
2.12283
2.12332
2.12385
2.12442
2.12502
2.12567
2.12636
2.1271
2.12796
2.12908
2.13075
2.13359
2.13934
2.15573
2.20135
2.8385
5.8402
10.4881
22.0952
39.3073
46.303
42.2955
29.2832
10.996
3.40565
2.60613
2.32932
2.24012
2.17717
2.14584
2.13112
2.1247
2.12143
2.11901
2.11739
2.11622
2.11536
2.1147
2.1142
2.11383
2.11352
2.11326
2.11304
2.11284
2.11268
2.11253
2.11241
2.11231
2.11224
2.11219
2.11221
2.08521
2.08532
2.08542
2.08557
2.08577
2.08603
2.08634
2.08671
2.08711
2.08757
2.08806
2.0886
2.08917
2.08978
2.09043
2.09112
2.09184
2.09272
2.09387
2.09553
2.09836
2.10402
2.12318
2.17398
2.93369
5.90841
10.1412
21.3926
37.8499
44.5278
38.0693
24.7805
8.89084
3.1414
2.58445
2.30401
2.20652
2.14253
2.11046
2.0962
2.08974
2.08652
2.08406
2.08245
2.08125
2.08039
2.07972
2.07919
2.07878
2.07847
2.07821
2.07798
2.07778
2.07761
2.07746
2.07734
2.07724
2.07716
2.07711
2.07713
2.05107
2.05117
2.05128
2.05142
2.05163
2.0519
2.05221
2.05258
2.05299
2.05345
2.05395
2.05449
2.05506
2.05568
2.05634
2.05702
2.05777
2.05867
2.05984
2.06149
2.06431
2.07001
2.09296
2.1502
3.02538
5.90359
9.82388
20.7386
36.2754
42.638
34.9514
21.3327
7.45623
2.95007
2.55565
2.27862
2.1752
2.10949
2.07599
2.06215
2.05575
2.05259
2.05013
2.04855
2.04736
2.0465
2.04583
2.04531
2.04488
2.04454
2.04428
2.04405
2.04385
2.04368
2.04353
2.04341
2.0433
2.04322
2.04317
2.04319
2.01802
2.01811
2.01822
2.01837
2.01858
2.01885
2.01917
2.01953
2.01995
2.02041
2.02091
2.02146
2.02205
2.02267
2.02333
2.02401
2.0248
2.02573
2.02692
2.02858
2.0314
2.03725
2.06489
2.12937
3.10471
5.85316
9.54437
20.0956
34.6983
40.7918
33.1698
18.921
6.49113
2.80893
2.52541
2.25263
2.14677
2.07813
2.04245
2.02897
2.02271
2.01962
2.01719
2.01566
2.01449
2.01365
2.01299
2.01248
2.01206
2.0117
2.01142
2.01119
2.011
2.01083
2.01069
2.01056
2.01045
2.01037
2.01032
2.01033
1.98599
1.98609
1.98619
1.98635
1.98656
1.98683
1.98715
1.98752
1.98794
1.9884
1.98891
1.98946
1.99006
1.99069
1.99136
1.99206
1.99288
1.99384
1.99506
1.99676
1.99957
2.00567
2.03856
2.11012
3.16896
5.77175
9.29495
19.4171
33.0236
39.1203
32.3917
18.4714
6.08993
2.75005
2.5036
2.22299
2.12155
2.04846
2.00985
1.99667
1.99062
1.98758
1.98522
1.98374
1.98261
1.9818
1.98116
1.98066
1.98024
1.9799
1.9796
1.97936
1.97917
1.97901
1.97887
1.97875
1.97864
1.97856
1.97851
1.97852
1.95495
1.95505
1.95515
1.95531
1.95552
1.95579
1.95612
1.95649
1.95691
1.95738
1.95789
1.95845
1.95905
1.95969
1.96036
1.9611
1.96195
1.96294
1.96421
1.96595
1.96876
1.9752
2.01329
2.09058
3.20351
5.66704
9.03834
18.6393
31.0962
37.5885
32.3103
20.2123
7.04834
2.93236
2.54119
2.18258
2.09937
2.02038
1.97818
1.96526
1.95944
1.95646
1.95419
1.95277
1.95168
1.9509
1.95029
1.9498
1.9494
1.94907
1.94878
1.94853
1.94833
1.94817
1.94804
1.94792
1.94782
1.94774
1.94769
1.94769
1.92486
1.92495
1.92506
1.92521
1.92543
1.9257
1.92602
1.92639
1.92682
1.92729
1.92781
1.92837
1.92898
1.92961
1.93031
1.93109
1.93197
1.933
1.9343
1.9361
1.93893
1.9458
1.98857
2.0696
3.21565
5.54385
8.73567
17.6862
29.021
35.94
32.7489
22.8188
9.61191
3.44466
2.71226
2.15988
2.07983
1.99362
1.94743
1.93477
1.92917
1.92626
1.92408
1.92271
1.92167
1.92093
1.92035
1.91988
1.9195
1.91917
1.91889
1.91865
1.91844
1.91827
1.91814
1.91803
1.91793
1.91785
1.9178
1.91781
1.89565
1.89575
1.89585
1.89601
1.89622
1.8965
1.89682
1.89719
1.89762
1.89809
1.89862
1.89918
1.89979
1.90044
1.90116
1.90197
1.90287
1.90394
1.90529
1.90715
1.91001
1.91733
1.96386
2.04791
3.20758
5.39671
8.37294
16.5252
26.8449
33.9235
33.0436
25.2606
12.9411
4.39827
2.88497
2.30125
2.06051
1.96789
1.91786
1.90522
1.89981
1.89694
1.89486
1.89355
1.89256
1.89185
1.8913
1.89085
1.89048
1.89017
1.88989
1.88966
1.88946
1.88928
1.88914
1.88903
1.88894
1.88887
1.88882
1.88883
1.86731
1.8674
1.86751
1.86766
1.86788
1.86815
1.86847
1.86885
1.86927
1.86975
1.87028
1.87084
1.87145
1.87212
1.87287
1.87369
1.87462
1.87573
1.87712
1.87903
1.88196
1.88969
1.93875
2.02504
3.17928
5.23433
7.95812
15.2026
24.4979
31.4659
32.6194
26.946
15.8858
5.69312
3.02023
2.57161
2.03789
1.94281
1.88949
1.87664
1.87134
1.86852
1.86652
1.86525
1.86431
1.86364
1.86311
1.86268
1.86232
1.86202
1.86176
1.86153
1.86133
1.86116
1.86101
1.8609
1.86081
1.86074
1.8607
1.8607
1.83978
1.83987
1.83998
1.84014
1.84035
1.84062
1.84094
1.84132
1.84174
1.84222
1.84275
1.84331
1.84392
1.84461
1.84537
1.84621
1.84717
1.84831
1.84975
1.8517
1.85472
1.86278
1.91307
2.00046
3.13391
5.24275
8.01839
14.57
22.5363
28.8997
31.0343
26.7508
16.7127
6.43631
3.09099
2.84256
2.01644
1.91797
1.86227
1.84899
1.84374
1.84095
1.83903
1.8378
1.8369
1.83625
1.83574
1.83533
1.83499
1.8347
1.83444
1.83422
1.83402
1.83386
1.83371
1.83359
1.8335
1.83344
1.8334
1.8334
1.81304
1.81313
1.81323
1.81339
1.8136
1.81387
1.81419
1.81456
1.81499
1.81547
1.81599
1.81655
1.81718
1.81787
1.81865
1.8195
1.82048
1.82165
1.82313
1.82511
1.82822
1.8365
1.88705
2.09535
3.06656
5.07983
7.58772
13.3433
20.5721
26.7622
29.7189
26.7426
17.7766
7.3906
3.23169
3.05091
1.98528
1.89343
1.83606
1.82223
1.81698
1.81421
1.81235
1.81115
1.81029
1.80966
1.80917
1.80878
1.80845
1.80816
1.80792
1.8077
1.80751
1.80734
1.8072
1.80708
1.80699
1.80692
1.80689
1.80689
1.78705
1.78713
1.78724
1.78739
1.7876
1.78787
1.78819
1.78856
1.78898
1.78946
1.78998
1.79054
1.79117
1.79187
1.79265
1.79351
1.79451
1.7957
1.79721
1.7992
1.8024
1.81075
1.86086
2.07455
3.47597
5.23106
8.10829
13.5306
19.9243
25.3849
27.6884
24.3653
15.8035
6.75855
3.29686
2.84265
1.99681
1.86989
1.81078
1.79633
1.79103
1.78829
1.78647
1.78529
1.78445
1.78384
1.78337
1.78298
1.78266
1.78239
1.78214
1.78193
1.78174
1.78158
1.78144
1.78133
1.78123
1.78116
1.78113
1.78113
1.76177
1.76185
1.76196
1.76211
1.76232
1.76259
1.7629
1.76327
1.76369
1.76416
1.76466
1.76523
1.76587
1.76657
1.76735
1.76822
1.76923
1.77042
1.77197
1.77394
1.7772
1.78552
1.83458
2.05204
3.38676
5.04379
7.72858
12.7179
18.7662
24.059
26.5571
23.8324
16.1296
7.19061
3.4159
2.8909
2.00909
1.84705
1.78627
1.77122
1.76586
1.76313
1.76134
1.76018
1.75936
1.75876
1.7583
1.75792
1.75761
1.75734
1.7571
1.75689
1.7567
1.75654
1.75641
1.75629
1.7562
1.75613
1.75609
1.75609
1.73719
1.73727
1.73737
1.73752
1.73773
1.73799
1.7383
1.73867
1.73908
1.73954
1.74004
1.74061
1.74125
1.74194
1.74272
1.74358
1.74461
1.74579
1.74736
1.74929
1.75259
1.76077
1.80843
2.02851
3.30101
4.87098
7.39067
12.0362
17.8164
22.9097
25.4608
23.172
16.2972
7.50826
3.50496
2.93019
2.02044
1.82478
1.76242
1.74685
1.74143
1.7387
1.73693
1.73578
1.73497
1.73438
1.73393
1.73356
1.73325
1.73298
1.73275
1.73254
1.73235
1.7322
1.73206
1.73195
1.73185
1.73178
1.73174
1.73174
1.71326
1.71334
1.71344
1.71359
1.7138
1.71405
1.71436
1.71472
1.71513
1.71557
1.71608
1.71664
1.71727
1.71796
1.71874
1.71959
1.72061
1.72179
1.72336
1.72525
1.72852
1.73653
1.78266
2.00464
3.22008
4.71287
7.09047
11.4603
17.0318
21.9048
24.3928
22.408
16.342
7.73189
3.56396
2.96051
2.02969
1.80295
1.73914
1.72316
1.71769
1.71497
1.71321
1.71207
1.71127
1.71068
1.71023
1.70987
1.70956
1.7093
1.70906
1.70885
1.70867
1.70852
1.70838
1.70827
1.70817
1.7081
1.70806
1.70805
1.68998
1.69005
1.69015
1.6903
1.6905
1.69075
1.69106
1.69141
1.69181
1.69224
1.69274
1.6933
1.69392
1.69459
1.69536
1.6962
1.69721
1.69837
1.69995
1.70178
1.705
1.71278
1.75744
1.98094
3.1446
4.56921
6.82461
10.9743
16.3827
21.0143
23.3444
21.5641
16.2876
7.87789
3.59452
2.98186
2.03582
1.78135
1.71635
1.70011
1.69461
1.6919
1.69015
1.68902
1.68822
1.68763
1.68719
1.68682
1.68651
1.68625
1.68602
1.68581
1.68563
1.68547
1.68534
1.68522
1.68513
1.68506
1.68501
1.685
1.6673
1.66737
1.66747
1.66762