/*--------------------------------*- C++ -*----------------------------------*\
  =========                 |
  \\      /  F ield         | OpenFOAM: The Open Source CFD Toolbox
   \\    /   O peration     | Website:  https://openfoam.org
    \\  /    A nd           | Version:  12
     \\/     M anipulation  |
\*---------------------------------------------------------------------------*/
FoamFile
{
    format      ascii;
    class       volScalarField;
    location    "280";
    object      p;
}
// * * * * * * * * * * * * * * * * * * * * * * * * * * * * * * * * * * * * * //

dimensions      [0 2 -2 0 0 0 0];

internalField   nonuniform List<scalar> 
16227
(
0.0172768
0.0174746
0.0178695
0.0184614
0.0192496
0.0202332
0.0214112
0.0227818
0.0243424
0.02609
0.0280208
0.0301296
0.0324102
0.0348561
0.0374586
0.0402079
0.0430923
0.0460988
0.0492125
0.0524171
0.0556947
0.0590258
0.06239
0.0657659
0.0691315
0.0724646
0.0757434
0.0789465
0.0820537
0.0850467
0.0879086
0.090625
0.0931839
0.0955763
0.0977955
0.0998379
0.101702
0.103391
0.104906
0.106255
0.107445
0.108484
0.109383
0.110153
0.110805
0.111351
0.111801
0.112168
0.112463
0.112694
0.112874
0.113009
0.113109
0.11318
0.11323
0.113263
0.113284
0.113296
0.113303
0.113306
0.0171313
0.0173292
0.0177244
0.0183168
0.0191057
0.0200903
0.0212695
0.0226418
0.0242046
0.025955
0.0278891
0.0300023
0.0322884
0.0347406
0.0373505
0.0401082
0.0430023
0.0460196
0.0491454
0.0523632
0.055655
0.0590012
0.0623812
0.0657733
0.0691552
0.0725045
0.0757988
0.0790168
0.0821378
0.0851433
0.088016
0.0907412
0.0933069
0.095704
0.0979258
0.0999689
0.101832
0.103518
0.105029
0.106372
0.107555
0.108587
0.109478
0.11024
0.110883
0.11142
0.111863
0.112222
0.112508
0.112733
0.112906
0.113035
0.11313
0.113196
0.113242
0.113271
0.11329
0.1133
0.113305
0.113308
0.0168096
0.0170077
0.0174036
0.017997
0.0187874
0.0197741
0.0209562
0.0223322
0.0238998
0.0256562
0.027598
0.029721
0.032019
0.0344851
0.037111
0.0398875
0.0428029
0.0458444
0.0489968
0.0522439
0.0555672
0.0589469
0.0623618
0.0657898
0.0692079
0.072593
0.0759221
0.0791729
0.0823245
0.0853576
0.0882541
0.0909988
0.0935795
0.095987
0.0982148
0.100259
0.10212
0.103799
0.105301
0.106632
0.1078
0.108815
0.109689
0.110432
0.111056
0.111574
0.111998
0.112339
0.112609
0.112818
0.112976
0.113093
0.113175
0.113232
0.113268
0.11329
0.113303
0.113309
0.113311
0.113312
0.0162692
0.0164677
0.0168646
0.0174597
0.0182526
0.0192427
0.0204294
0.0218115
0.023387
0.0251536
0.027108
0.0292473
0.0315648
0.0340539
0.0367069
0.0395146
0.0424659
0.0455475
0.0487446
0.052041
0.055418
0.0588543
0.0623284
0.0658172
0.0692967
0.0727427
0.0761308
0.0794375
0.0826407
0.0857203
0.0886571
0.0914347
0.0940407
0.0964658
0.0987036
0.100751
0.102607
0.104275
0.10576
0.10707
0.108213
0.1092
0.110043
0.110754
0.111347
0.111833
0.112225
0.112536
0.112778
0.11296
0.113094
0.113188
0.113251
0.11329
0.113311
0.113321
0.113323
0.113322
0.113319
0.113318
0.0155184
0.0157176
0.0161157
0.0167129
0.0175089
0.0185034
0.0196961
0.0210862
0.0226723
0.0244524
0.026424
0.0285849
0.0309288
0.0334494
0.0361395
0.0389904
0.0419909
0.0451279
0.0483869
0.051753
0.055205
0.0587211
0.0622784
0.0658531
0.0694194
0.0729514
0.076423
0.079809
0.0830854
0.0862307
0.0892242
0.0920482
0.0946899
0.0971397
0.099391
0.101441
0.10329
0.104942
0.106404
0.107682
0.108789
0.109737
0.110537
0.111203
0.11175
0.112192
0.11254
0.112809
0.113011
0.113156
0.113255
0.113318
0.113353
0.113368
0.113369
0.113361
0.11335
0.113338
0.113329
0.113324
0.0145703
0.01477
0.0151695
0.015769
0.0165684
0.0175679
0.0187674
0.0201668
0.0217654
0.0235617
0.0255538
0.0277404
0.0301167
0.0326765
0.0354127
0.0383174
0.0413798
0.0445866
0.0479248
0.0513795
0.0549275
0.0585458
0.0622104
0.0658958
0.0695745
0.0732181
0.0767981
0.0802869
0.0836583
0.0868888
0.0899556
0.0928394
0.0955268
0.0980076
0.100276
0.102328
0.104168
0.105798
0.107227
0.108465
0.109524
0.110419
0.111163
0.111771
0.11226
0.112643
0.112935
0.11315
0.1133
0.113398
0.113454
0.113478
0.113478
0.113462
0.113437
0.113407
0.113378
0.113354
0.113336
0.113326
0.0134267
0.013627
0.0140277
0.0146295
0.0154323
0.0164369
0.0176436
0.0190531
0.0206653
0.0224799
0.0244952
0.0267107
0.029125
0.0317308
0.0345217
0.0374905
0.0406267
0.0439183
0.0473533
0.0509157
0.0545812
0.0583254
0.0621227
0.0659457
0.0697642
0.0735469
0.0772623
0.0808795
0.0843694
0.0877058
0.0908634
0.0938211
0.0965641
0.0990822
0.101369
0.103423
0.105247
0.106848
0.108235
0.109421
0.110419
0.111247
0.11192
0.112456
0.112871
0.113182
0.113404
0.113553
0.11364
0.11368
0.113683
0.113659
0.113617
0.113564
0.113507
0.113451
0.113402
0.113362
0.113333
0.113319
0.012084
0.0122847
0.0126865
0.01329
0.0140959
0.0151053
0.0163191
0.0177387
0.0193651
0.021199
0.0232397
0.0254874
0.0279428
0.0306005
0.0334546
0.0364975
0.0397193
0.0431113
0.046661
0.0503514
0.0541575
0.0580532
0.0620111
0.0660013
0.0699902
0.0739429
0.0778239
0.0815983
0.085233
0.0886987
0.0919667
0.0950131
0.0978224
0.100384
0.102691
0.104744
0.106547
0.108108
0.109441
0.11056
0.111482
0.112227
0.112812
0.113259
0.113584
0.113808
0.113946
0.114014
0.114027
0.113997
0.113938
0.113857
0.113765
0.113668
0.113574
0.113488
0.113414
0.113356
0.113316
0.113295
0.0105391
0.01074
0.0111421
0.0117467
0.0125546
0.0135677
0.0147878
0.0162167
0.0178568
0.01971
0.0217772
0.0240589
0.0265575
0.0292728
0.032197
0.0353232
0.0386429
0.04215
0.0458318
0.0496717
0.0536433
0.0577183
0.0618676
0.0660579
0.0702517
0.0744096
0.0784907
0.0824551
0.0862649
0.0898863
0.0932864
0.0964386
0.0993255
0.101936
0.104264
0.106311
0.108085
0.109595
0.110859
0.111894
0.112722
0.113364
0.113843
0.114181
0.1144
0.114519
0.114556
0.11453
0.114456
0.114346
0.114213
0.114067
0.113916
0.11377
0.113634
0.113513
0.113411
0.113332
0.113278
0.113251
0.00879064
0.00899117
0.00939286
0.00999725
0.0108056
0.0118207
0.0130451
0.0144815
0.0161335
0.0180047
0.0200976
0.0224143
0.024958
0.0277334
0.0307328
0.0339497
0.0373785
0.0410155
0.0448478
0.0488593
0.0530226
0.0573073
0.061682
0.0661094
0.0705473
0.0749502
0.0792712
0.0834636
0.0874831
0.0912904
0.0948477
0.0981243
0.101101
0.103766
0.106115
0.10815
0.109883
0.111327
0.112503
0.113435
0.114146
0.114665
0.115016
0.115225
0.115316
0.115312
0.115233
0.115097
0.114921
0.114719
0.114502
0.114282
0.114066
0.113864
0.11368
0.113519
0.113387
0.113285
0.113216
0.11318
0.00683883
0.00703841
0.00743846
0.00804086
0.00884755
0.00986183
0.0110874
0.0125283
0.0141893
0.0160755
0.0181917
0.0205421
0.023131
0.0259661
0.0290436
0.0323574
0.0359064
0.0396875
0.0436882
0.047894
0.0522768
0.0568046
0.0614424
0.0661488
0.0708754
0.0755697
0.0801766
0.084641
0.0889105
0.0929388
0.0966814
0.100103
0.103182
0.105907
0.108273
0.110288
0.111965
0.113324
0.114391
0.115194
0.115764
0.116133
0.11633
0.116387
0.116329
0.116182
0.115968
0.115706
0.115414
0.115107
0.114797
0.114493
0.114205
0.11394
0.113703
0.1135
0.113333
0.113206
0.11312
0.113076
0.00468496
0.0048828
0.0052796
0.00587774
0.00667968
0.00768956
0.00891218
0.010353
0.0120182
0.0139148
0.0160497
0.0184299
0.0210612
0.0239533
0.0271117
0.0305277
0.0342046
0.0381415
0.0423279
0.0467502
0.0513824
0.0561901
0.0611336
0.0661665
0.0712336
0.0762732
0.0812202
0.0860085
0.0905753
0.0948652
0.0988256
0.102415
0.10561
0.108398
0.110777
0.112759
0.114361
0.11561
0.116539
0.117184
0.117582
0.11777
0.117786
0.117663
0.117431
0.117119
0.11675
0.116345
0.115924
0.1155
0.115084
0.114688
0.114321
0.113988
0.113694
0.113443
0.11324
0.113085
0.112982
0.112929
0.00233086
0.00252598
0.00291757
0.00350845
0.00430182
0.00530252
0.0065167
0.00795132
0.00961408
0.0115142
0.0136611
0.0160645
0.0187333
0.0216791
0.0249142
0.028434
0.0322448
0.0363478
0.0407354
0.0453962
0.0503101
0.0554381
0.0607349
0.0661488
0.0716168
0.0770657
0.0824172
0.0875914
0.0925121
0.0971118
0.101327
0.105111
0.108435
0.111288
0.113671
0.1156
0.117102
0.11821
0.118967
0.119417
0.119606
0.119579
0.11938
0.119046
0.118613
0.118112
0.117567
0.117003
0.116437
0.115883
0.115352
0.114856
0.114402
0.113996
0.11364
0.11334
0.113098
0.112914
0.112791
0.112729
-0.000221135
-2.9906e-05
0.000354049
0.000934038
0.00171401
0.0026997
0.00389843
0.00531887
0.0069705
0.00886478
0.011014
0.0134312
0.0161288
0.019121
0.0224245
0.026047
0.029994
0.0342706
0.0388736
0.0437963
0.0490239
0.0545143
0.0602176
0.0660759
0.072016
0.0779508
0.0837848
0.0894202
0.0947627
0.0997299
0.104245
0.108251
0.111719
0.114636
0.117009
0.118861
0.120228
0.121155
0.121696
0.121906
0.121842
0.121559
0.121106
0.120528
0.119864
0.119147
0.118405
0.117663
0.116937
0.11624
0.115586
0.114983
0.114436
0.113951
0.113531
0.113179
0.112895
0.112682
0.112539
0.112467
-0.00296783
-0.00278194
-0.00240848
-0.0018437
-0.00108286
-0.00011935
0.0010554
0.00245173
0.00408119
0.00595746
0.00809608
0.0105137
0.0132273
0.0162544
0.019617
0.0233332
0.0274126
0.0318655
0.0366957
0.0419019
0.0474753
0.0533733
0.0595429
0.0659193
0.0724168
0.0789301
0.0853421
0.0915309
0.0973791
0.102783
0.107651
0.111913
0.115536
0.118513
0.120854
0.122595
0.123783
0.124478
0.124749
0.124665
0.124296
0.123707
0.122956
0.122095
0.121167
0.120207
0.119246
0.118307
0.117406
0.116556
0.115769
0.115052
0.114408
0.113841
0.113354
0.112948
0.112622
0.112378
0.112215
0.112133
-0.0059047
-0.00572582
-0.00536617
-0.00482161
-0.00408662
-0.00315369
-0.00201316
-0.000652913
0.000940731
0.00278391
0.00489523
0.00729576
0.0100071
0.0130522
0.0164583
0.0202533
0.0244547
0.0290803
0.0341434
0.0396508
0.0456011
0.0519553
0.0586588
0.0656394
0.0727966
0.0800024
0.0871106
0.0939679
0.100425
0.106353
0.111635
0.11619
0.119981
0.123005
0.125285
0.126867
0.127819
0.128217
0.12815
0.127705
0.126967
0.126015
0.124917
0.123729
0.122501
0.12127
0.120067
0.118913
0.117823
0.116811
0.115884
0.115047
0.114302
0.113652
0.113097
0.112635
0.112267
0.111992
0.111809
0.111717
-0.00902539
-0.00885538
-0.00851331
-0.0079947
-0.00729323
-0.00640064
-0.00530619
-0.00399616
-0.00245463
-0.000662994
0.00140061
0.0037614
0.00644662
0.00948552
0.0129116
0.0167632
0.021068
0.0258537
0.0311473
0.0369663
0.0433197
0.0501802
0.0574942
0.0651806
0.0731219
0.0811615
0.0891148
0.0967854
0.103982
0.110539
0.116311
0.1212
0.125168
0.128219
0.130391
0.131753
0.132392
0.132411
0.131921
0.131033
0.129851
0.128469
0.126967
0.125406
0.12384
0.122308
0.12084
0.119454
0.118164
0.116981
0.115909
0.114949
0.114103
0.113368
0.112744
0.112229
0.111819
0.111514
0.111311
0.11121
-0.0123215
-0.0121625
-0.0118422
-0.0113558
-0.0106965
-0.00985525
-0.00882039
-0.00757675
-0.00610637
-0.00438811
-0.00239715
-0.000103818
0.00252494
0.00552534
0.00893864
0.0128146
0.0171929
0.022115
0.0276242
0.0337535
0.0405278
0.0479453
0.0559533
0.0644639
0.0733407
0.0823919
0.0913803
0.10005
0.108152
0.115471
0.121823
0.127092
0.131238
0.134281
0.136283
0.137339
0.137568
0.137102
0.136082
0.134649
0.132933
0.131045
0.129073
0.127088
0.125146
0.123286
0.121531
0.119899
0.118401
0.117042
0.115821
0.114738
0.113791
0.112974
0.112284
0.111716
0.111266
0.110932
0.110711
0.1106
-0.0157827
-0.0156368
-0.0153428
-0.0148954
-0.0142877
-0.01351
-0.0125496
-0.0113906
-0.0100131
-0.00839371
-0.0065045
-0.00431196
-0.00177705
0.00114379
0.00450063
0.00835625
0.0127642
0.0177823
0.0234767
0.0299018
0.037106
0.0451199
0.0539048
0.0633767
0.0733803
0.0836699
0.0939377
0.103847
0.113068
0.121316
0.128357
0.134051
0.138365
0.141343
0.143083
0.143722
0.143416
0.142331
0.140646
0.138545
0.136187
0.133702
0.131192
0.128731
0.126376
0.124159
0.1221
0.120212
0.1185
0.116962
0.115595
0.114392
0.113347
0.112452
0.1117
0.111083
0.110597
0.110237
0.109999
0.10988
-0.019396
-0.0192657
-0.0190026
-0.0186016
-0.0180555
-0.0173542
-0.0164847
-0.0154302
-0.0141698
-0.012678
-0.0109241
-0.00887143
-0.00647529
-0.00368452
-0.000439938
0.00333478
0.00771045
0.0127651
0.0185913
0.0252737
0.0328943
0.041523
0.0511621
0.0617509
0.0731121
0.0849373
0.0968088
0.108278
0.118901
0.128296
0.13616
0.142326
0.146777
0.149601
0.150952
0.151026
0.15002
0.148139
0.145618
0.142695
0.139568
0.136387
0.133265
0.130276
0.127471
0.124874
0.122498
0.120349
0.118424
0.116712
0.115204
0.113888
0.112753
0.111786
0.110978
0.110319
0.109802
0.109419
0.109166
0.10904
-0.0231464
-0.023034
-0.0228067
-0.0224595
-0.0219854
-0.0213742
-0.0206127
-0.019684
-0.0185668
-0.0172341
-0.0156534
-0.0137852
-0.0115803
-0.00898025
-0.00591732
-0.00230215
0.00195771
0.0069634
0.012837
0.0197028
0.0276872
0.0369146
0.0474729
0.0593537
0.072407
0.0861475
0.100045
0.113494
0.125885
0.136698
0.145536
0.152203
0.156717
0.159243
0.160024
0.159338
0.157462
0.154562
0.15098
0.147044
0.143
0.139016
0.135208
0.131644
0.128358
0.125367
0.122671
0.120264
0.118133
0.116257
0.114619
0.113202
0.111988
0.110961
0.110106
0.109412
0.108869
0.108469
0.108205
0.108073
-0.0270161
-0.026924
-0.0267373
-0.0264514
-0.0260596
-0.0255521
-0.0249163
-0.0241355
-0.0231888
-0.022049
-0.0206828
-0.0190485
-0.0170945
-0.0147563
-0.0119583
-0.00860007
-0.00456429
0.000274412
0.00607043
0.0129977
0.0212424
0.031005
0.0424839
0.0557838
0.0708527
0.0870573
0.103586
0.119619
0.13431
0.146934
0.156958
0.164153
0.168613
0.170637
0.17061
0.168916
0.165881
0.161627
0.156684
0.151503
0.146378
0.141479
0.136915
0.132734
0.12895
0.125562
0.122554
0.119904
0.117583
0.115561
0.113812
0.112311
0.111034
0.10996
0.109071
0.108352
0.107792
0.10738
0.107109
0.106974
-0.0309851
-0.0309155
-0.0307739
-0.0305565
-0.030257
-0.0298665
-0.0293736
-0.0287628
-0.0280143
-0.0271022
-0.0259937
-0.0246472
-0.0230097
-0.0210137
-0.018577
-0.0155909
-0.0119164
-0.0074021
-0.00185829
0.00494594
0.0132692
0.0234092
0.0357236
0.0505339
0.0684043
0.0876889
0.107585
0.126954
0.144591
0.159476
0.170877
0.178535
0.18268
0.183848
0.182667
0.179634
0.175395
0.169318
0.162627
0.155925
0.14954
0.143623
0.138247
0.133426
0.129145
0.125376
0.12208
0.119213
0.116729
0.114589
0.112755
0.111193
0.109873
0.10877
0.107862
0.107131
0.106563
0.106147
0.105873
0.105738
-0.0350308
-0.0349857
-0.0348934
-0.0347508
-0.0345528
-0.0342917
-0.0339579
-0.033538
-0.0330146
-0.0323645
-0.0315574
-0.030554
-0.029303
-0.0277366
-0.02577
-0.0232902
-0.0201442
-0.0161536
-0.0110926
-0.00467297
0.00344115
0.0136438
0.0264862
0.0426193
0.0583343
0.0805631
0.103981
0.127246
0.148803
0.167193
0.181317
0.19066
0.195492
0.19658
0.194884
0.191227
0.18627
0.177578
0.168611
0.160056
0.152247
0.145236
0.139024
0.133572
0.128824
0.124713
0.121172
0.11813
0.115526
0.113306
0.11142
0.109827
0.108491
0.107381
0.106472
0.105744
0.10518
0.104767
0.104497
0.104363
-0.0391287
-0.0391097
-0.0390702
-0.0390078
-0.0389189
-0.0387978
-0.0386374
-0.0384272
-0.0381535
-0.0377972
-0.0373333
-0.0367274
-0.0359332
-0.0348879
-0.0335089
-0.0316846
-0.0292595
-0.0260341
-0.0217496
-0.0160666
-0.0085764
0.0011571
0.0137371
0.0291588
0.0507745
0.0769479
0.106264
0.135777
0.163125
0.18605
0.202836
0.212815
0.216648
0.215799
0.211902
0.205851
0.198125
0.18639
0.174212
0.163512
0.154181
0.146053
0.139032
0.133006
0.127856
0.123475
0.119755
0.1166
0.113932
0.111681
0.109786
0.108199
0.106877
0.105785
0.104897
0.104188
0.103641
0.103242
0.102981
0.102851
-0.0432523
-0.0432607
-0.0432764
-0.0432982
-0.0433243
-0.0433514
-0.0433755
-0.0433901
-0.0433866
-0.0433518
-0.0432679
-0.043109
-0.0428384
-0.0424037
-0.041732
-0.0407212
-0.0392241
-0.037039
-0.0338839
-0.029379
-0.0230182
-0.0142989
-0.002754
0.0152366
0.0390391
0.0655113
0.102447
0.139375
0.174093
0.203294
0.224185
0.235547
0.238452
0.235364
0.229116
0.22305
0.208521
0.194478
0.178498
0.165718
0.154911
0.145746
0.138025
0.131542
0.126109
0.121561
0.117755
0.114571
0.11191
0.109688
0.107836
0.106297
0.105025
0.103981
0.103136
0.102464
0.101948
0.101573
0.101328
0.101207
-0.0473739
-0.0474103
-0.0474827
-0.047591
-0.0477355
-0.0479158
-0.0481315
-0.0483812
-0.0486622
-0.0489694
-0.0492944
-0.049623
-0.0499332
-0.0501894
-0.0503376
-0.0502966
-0.0499405
-0.0490856
-0.0474575
-0.044654
-0.0400341
-0.0328873
-0.0231092
-0.00353646
0.0223428
0.0521387
0.0988729
0.147555
0.194474
0.233709
0.26001
0.271481
0.270718
0.262468
0.251272
0.240673
0.219069
0.199415
0.180336
0.165939
0.153913
0.143944
0.135741
0.128998
0.123451
0.118882
0.115113
0.112003
0.109434
0.107313
0.105562
0.104119
0.102936
0.101971
0.101194
0.100581
0.10011
0.0997694
0.0995473
0.0994376
-0.0514652
-0.0515296
-0.0516587
-0.0518537
-0.0521172
-0.0524519
-0.0528616
-0.0533502
-0.0539224
-0.0545823
-0.0553333
-0.0561762
-0.057108
-0.0581169
-0.0591782
-0.0602455
-0.0612331
-0.0619994
-0.0623169
-0.0618234
-0.0597808
-0.0551953
-0.048279
-0.0282155
-0.000986403
0.0337081
0.0914866
0.156102
0.221281
0.275846
0.309302
0.318481
0.309611
0.291659
0.271925
0.253122
0.226151
0.20042
0.178969
0.163473
0.150666
0.140284
0.131938
0.125212
0.119774
0.115365
0.111784
0.10887
0.106493
0.104552
0.102966
0.101671
0.100618
0.0997653
0.099083
0.0985463
0.0981371
0.0978411
0.0976488
0.0975539
-0.0554975
-0.0555891
-0.0557735
-0.0560534
-0.0564332
-0.0569192
-0.0575194
-0.0582436
-0.0591044
-0.0601158
-0.0612949
-0.0626597
-0.0642305
-0.0660255
-0.0680587
-0.0703351
-0.0728336
-0.0754858
-0.0781577
-0.0806344
-0.0822385
-0.0818132
-0.0797848
-0.0606345
-0.0351277
0.00414576
0.0742111
0.161311
0.256247
0.337261
0.380948
0.382082
0.356155
0.321234
0.289017
0.260297
0.22773
0.196508
0.173678
0.157721
0.144743
0.134485
0.126435
0.120068
0.115008
0.110976
0.107754
0.10517
0.103092
0.101416
0.100063
0.0989696
0.098088
0.0973804
0.0968179
0.096378
0.0960441
0.0958034
0.0956475
0.0955706
-0.0594427
-0.0595602
-0.0597971
-0.0601574
-0.0606477
-0.0612773
-0.0620586
-0.0630071
-0.0641431
-0.0654913
-0.0670824
-0.0689536
-0.0711502
-0.0737255
-0.0767404
-0.0802642
-0.084367
-0.089097
-0.0944641
-0.100517
-0.106876
-0.112582
-0.118438
-0.103128
-0.0847792
-0.0445713
0.0357249
0.152907
0.29965
0.43262
0.492333
0.469793
0.408352
0.345957
0.29742
0.257846
0.221277
0.186343
0.163629
0.148162
0.135847
0.126381
0.119138
0.11352
0.109142
0.105724
0.103044
0.100932
0.0992627
0.0979376
0.096883
0.0960425
0.0953728
0.0948409
0.0944218
0.0940965
0.0938511
0.0936751
0.0935613
0.0935053
-0.063274
-0.0634154
-0.0637006
-0.0641347
-0.0647264
-0.0654875
-0.0664344
-0.0675878
-0.068975
-0.0706304
-0.0725981
-0.0749334
-0.0777073
-0.081009
-0.0849499
-0.0896717
-0.0953542
-0.102202
-0.110425
-0.120434
-0.132373
-0.145997
-0.163101
-0.15648
-0.154533
-0.123823
-0.0459565
0.101099
0.339353
0.592079
0.678549
0.58545
0.452575
0.351952
0.287892
0.241242
0.20421
0.16863
0.148115
0.134455
0.123852
0.115939
0.110061
0.10561
0.102235
0.0996724
0.0977162
0.0962158
0.0950599
0.0941656
0.0934711
0.0929299
0.0925076
0.0921784
0.0919232
0.0917278
0.091582
0.0914783
0.0914116
0.0913789
-0.0669669
-0.0671294
-0.0674574
-0.0679568
-0.0686379
-0.0695145
-0.070606
-0.0719373
-0.0735414
-0.0754605
-0.0777498
-0.0804802
-0.0837448
-0.0876651
-0.0924004
-0.0981616
-0.105239
-0.114012
-0.124924
-0.138812
-0.156477
-0.178863
-0.209557
-0.217663
-0.244475
-0.243183
-0.205698
-0.0714787
0.293453
0.880294
1.01342
0.69748
0.443621
0.313495
0.249299
0.206196
0.174557
0.142823
0.126933
0.116589
0.10886
0.103302
0.0993592
0.0964916
0.0944267
0.092946
0.0918807
0.0911151
0.0905652
0.0901706
0.0898872
0.0896835
0.0895371
0.0894318
0.0893562
0.0893021
0.0892642
0.0892384
0.0892224
0.0892146
-0.0704992
-0.0706798
-0.071044
-0.0715987
-0.0723548
-0.0733276
-0.0745383
-0.0760145
-0.0777927
-0.0799202
-0.0824593
-0.0854916
-0.089125
-0.0935046
-0.0988249
-0.105349
-0.113455
-0.123678
-0.136666
-0.153666
-0.176101
-0.206283
-0.24989
-0.277255
-0.342008
-0.396242
-0.468071
-0.525324
-0.328185
1.16727
1.55871
0.562711
0.281065
0.20317
0.174339
0.152226
0.132962
0.109613
0.100651
0.0950652
0.0913097
0.0888385
0.0873458
0.0864314
0.0859415
0.0857305
0.0856914
0.0857581
0.0858847
0.0860403
0.0862047
0.086365
0.0865134
0.0866455
0.0867591
0.0868532
0.0869277
0.086983
0.0870196
0.0870376
-0.0738522
-0.0740472
-0.0744408
-0.0750396
-0.075855
-0.0769027
-0.0782043
-0.0797883
-0.0816921
-0.0839646
-0.0866701
-0.0898935
-0.0937479
-0.0983867
-0.104019
-0.110931
-0.119536
-0.130457
-0.144452
-0.163027
-0.187917
-0.222486
-0.273654
-0.319611
-0.41766
-0.537182
-0.763789
-1.24254
-2.25864
-0.53499
-0.0647427
0.0388178
0.0765471
0.0855979
0.082601
0.070931
0.0706882
0.0709422
0.0719939
0.0731523
0.0744974
0.0758077
0.0770799
0.0782664
0.0793411
0.0803004
0.0811443
0.0818775
0.0825076
0.0830434
0.083494
0.0838679
0.0841732
0.0844166
0.0846043
0.0847409
0.08483
0.084874
-0.0770103
-0.0772164
-0.077632
-0.0782635
-0.079122
-0.0802226
-0.081586
-0.0832394
-0.0852185
-0.0875697
-0.0903538
-0.0936508
-0.0975671
-0.102246
-0.107887
-0.114755
-0.123234
-0.133934
-0.147549
-0.165595
-0.189554
-0.22307
-0.272245
-0.328747
-0.436667
-0.593422
-0.900565
-1.61704
-3.6402
-5.16467
-0.694937
-0.263346
-0.0886074
-0.0144623
0.0155058
0.0285504
0.0296901
0.0391296
0.0457336
0.0520209
0.0570672
0.0614433
0.0651029
0.0682147
0.0708444
0.0730587
0.074923
0.0764879
0.0777973
0.0788891
0.0797947
0.0805412
0.0811508
0.081642
0.08203
0.0823267
0.0825414
0.082681
0.0827499
-0.0799621
-0.0801758
-0.0806063
-0.0812596
-0.0821456
-0.0832779
-0.0846752
-0.0863613
-0.0883676
-0.0907344
-0.0935135
-0.0967725
-0.100599
-0.10511
-0.110466
-0.116876
-0.124624
-0.134193
-0.146035
-0.161403
-0.180914
-0.207674
-0.244501
-0.299033
-0.387516
-0.530244
-0.78657
-1.28942
-2.27574
-2.84112
-1.25239
-0.570333
-0.257123
-0.137709
-0.0815573
-0.0519503
-0.0247387
-0.0110059
0.00831202
0.0211655
0.0326671
0.0415334
0.0489023
0.0548592
0.0597591
0.0637818
0.0670902
0.0698181
0.0720668
0.0739199
0.0754449
0.0766961
0.0777179
0.0785459
0.079209
0.07973
0.080127
0.0804134
0.0805991
0.0806908
-0.0826996
-0.0829177
-0.0833568
-0.0840219
-0.0849213
-0.0860665
-0.0874727
-0.0891594
-0.0911513
-0.0934796
-0.0961831
-0.0993108
-0.102924
-0.107099
-0.111938
-0.117564
-0.124118
-0.131879
-0.140919
-0.152071
-0.164705
-0.181068
-0.198849
-0.239901
-0.289368
-0.378778
-0.526923
-0.773454
-1.17721
-1.43802
-0.900039
-0.296425
-0.121493
-0.157287
-0.137549
-0.116333
-0.0747466
-0.0482533
-0.0195289
-0.00107773
0.015202
0.0275015
0.0375915
0.045614
0.0521203
0.0573902
0.0616751
0.0651711
0.0680258
0.0703591
0.0722655
0.0738198
0.0750825
0.0761011
0.0769139
0.0775505
0.0780344
0.0783829
0.0786087
0.07872
-0.0852179
-0.0854378
-0.0858802
-0.0865486
-0.0874498
-0.0885923
-0.0899876
-0.0916493
-0.0935948
-0.0958441
-0.098421
-0.101353
-0.104669
-0.108403
-0.112589
-0.117256
-0.12239
-0.128047
-0.133896
-0.140373
-0.145583
-0.151225
-0.149311
-0.170564
-0.176066
-0.197182
-0.251019
-0.356507
-0.643843
-0.938744
-0.83186
-0.346537
-0.275932
-0.237971
-0.201635
-0.175925
-0.118635
-0.0791942
-0.0423353
-0.0194641
0.00078646
0.015842
0.0281651
0.0378568
0.0456698
0.0519526
0.0570305
0.0611496
0.0644953
0.0672172
0.0694316
0.0712305
0.0726871
0.073859
0.0747919
0.0755212
0.0760748
0.0764731
0.0767308
0.0768579
-0.0875151
-0.0877349
-0.0881762
-0.0888416
-0.0897358
-0.0908644
-0.0922345
-0.0938542
-0.0957326
-0.0978787
-0.100301
-0.103005
-0.105992
-0.109251
-0.112757
-0.116454
-0.120199
-0.123877
-0.126827
-0.129268
-0.128304
-0.125811
-0.109153
-0.11116
-0.0819034
-0.0402114
-0.000600282
-0.0031184
-0.443546
-1.07952
-1.27915
-0.870855
-0.560876
-0.353487
-0.26564
-0.222154
-0.151721
-0.101125
-0.058344
-0.0327243
-0.00963148
0.00725817
0.0211503
0.031984
0.040711
0.0477007
0.0533347
0.0578913
0.0615824
0.0645779
0.0670095
0.0689808
0.0705741
0.071854
0.0728716
0.0736663
0.074269
0.0747023
0.0749827
0.0751208
-0.0895917
-0.0898097
-0.0902472
-0.0909053
-0.0917868
-0.0928945
-0.0942315
-0.0958004
-0.0976029
-0.099638
-0.1019
-0.104378
-0.107048
-0.109864
-0.112757
-0.115615
-0.118214
-0.120349
-0.121168
-0.120908
-0.116087
-0.10951
-0.086205
-0.0758028
-0.0327611
0.036741
0.143727
0.0623697
-0.53604
-1.33204
-1.58301
-1.11995
-0.639301
-0.405296
-0.295688
-0.243702
-0.169319
-0.111996
-0.0663787
-0.039987
-0.0154183
0.00221955
0.0169006
0.0282661
0.0374532
0.0447953
0.0507123
0.0554934
0.059363
0.0625012
0.0650465
0.0671084
0.0687739
0.070111
0.0711735
0.0720031
0.0726319
0.073084
0.0733764
0.0735206
-0.0914494
-0.0916649
-0.0920969
-0.0927454
-0.0936116
-0.0946957
-0.0959973
-0.0975146
-0.0992431
-0.101174
-0.103291
-0.105569
-0.107969
-0.110423
-0.112836
-0.115069
-0.116873
-0.118035
-0.117649
-0.116176
-0.109957
-0.103125
-0.0809454
-0.0677826
-0.0347652
0.00972107
-0.0203995
-0.186168
-0.540053
-0.958475
-1.05803
-0.781903
-0.52184
-0.369318
-0.283464
-0.236526
-0.168931
-0.111258
-0.0661514
-0.0409379
-0.0163556
0.000906103
0.0155608
0.0268233
0.035994
0.0433143
0.0492257
0.0540055
0.057877
0.0610187
0.0635679
0.0656339
0.067303
0.0686435
0.069709
0.070541
0.0711719
0.0716255
0.0719189
0.0720636
-0.0930909
-0.0933037
-0.0937297
-0.0943683
-0.0952191
-0.0962804
-0.0975494
-0.0990206
-0.100685
-0.102529
-0.10453
-0.106653
-0.108851
-0.111048
-0.113141
-0.114992
-0.116364
-0.117091
-0.116309
-0.114814
-0.109038
-0.104342
-0.0876825
-0.0785914
-0.0666386
-0.0637036
-0.176084
-0.237239
-0.371807
-0.518022
-0.554482
-0.444812
-0.363654
-0.288629
-0.240649
-0.206927
-0.151889
-0.0995069
-0.058345
-0.035826
-0.0126212
0.0032271
0.0170679
0.0276238
0.0363171
0.0432496
0.0488715
0.0534271
0.057125
0.0601318
0.0625753
0.0645586
0.066163
0.0674529
0.0684792
0.0692813
0.06989
0.0703278
0.0706113
0.0707511
-0.0945194
-0.0947295
-0.09515
-0.0957797
-0.0966171
-0.0976593
-0.0989018
-0.100337
-0.101954
-0.103735
-0.105656
-0.107677
-0.109751
-0.111802
-0.113735
-0.115424
-0.116673
-0.117379
-0.116761
-0.115941
-0.111531
-0.10958
-0.0990419
-0.0955019
-0.0992952
-0.116618
-0.198176
-0.184889
-0.218357
-0.2765
-0.278688
-0.243347
-0.229338
-0.201758
-0.184984
-0.163507
-0.122797
-0.078591
-0.0439767
-0.0253152
-0.00476289
0.00884424
0.021188
0.0304968
0.0382948
0.0445088
0.049583
0.0537086
0.0570697
0.0598119
0.0620467
0.0638655
0.0653403
0.0665285
0.0674755
0.0682169
0.0687802
0.0691858
0.0694486
0.0695783
-0.0957376
-0.0959456
-0.0963617
-0.0969843
-0.0978117
-0.0988402
-0.100065
-0.101477
-0.103065
-0.10481
-0.106689
-0.108664
-0.110689
-0.112698
-0.114611
-0.116319
-0.117673
-0.118632
-0.118497
-0.11862
-0.115778
-0.116052
-0.110223
-0.110173
-0.119852
-0.138768
-0.173011
-0.142725
-0.115097
-0.155857
-0.140032
-0.12643
-0.131427
-0.127149
-0.126504
-0.113402
-0.0862071
-0.0511418
-0.0244961
-0.0103754
0.0064851
0.0172309
0.0275394
0.0351685
0.0417158
0.0469297
0.0512373
0.0547564
0.0576389
0.0600031
0.0619383
0.06352
0.0648074
0.0658479
0.0666797
0.0673325
0.0678295
0.068188
0.0684206
0.0685355
-0.096748
-0.0969544
-0.0973675
-0.0979855
-0.0988069
-0.0998278
-0.101043
-0.102446
-0.104023
-0.105761
-0.107635
-0.109613
-0.111659
-0.113714
-0.115719
-0.117579
-0.119201
-0.120577
-0.121079
-0.122159
-0.120758
-0.122425
-0.119652
-0.120449
-0.129536
-0.142742
-0.148606
-0.12961
-0.0946446
-0.0825371
-0.0729204
-0.0566002
-0.0622454
-0.0670592
-0.069783
-0.0617521
-0.0459255
-0.0197687
-0.00157162
0.00775186
0.0202708
0.0277538
0.0356215
0.0412727
0.0463062
0.0503048
0.0536691
0.056441
0.0587316
0.0606259
0.0621874
0.0634723
0.0645242
0.0653789
0.0660652
0.0666059
0.0670189
0.0673176
0.0675117
0.0676079
-0.0975521
-0.0977576
-0.0981691
-0.0987852
-0.0996044
-0.100624
-0.101839
-0.103244
-0.104829
-0.106582
-0.108484
-0.110511
-0.112633
-0.114803
-0.116985
-0.119097
-0.121096
-0.122987
-0.124197
-0.126163
-0.126042
-0.128459
-0.127696
-0.12763
-0.133649
-0.139935
-0.131622
-0.119576
-0.10962
-0.0503985
-0.0159017
-0.0113807
-0.0147149
-0.0150048
-0.0178133
-0.011555
-0.00461817
0.0133467
0.0232207
0.0277743
0.0356547
0.0397179
0.0448835
0.0483684
0.051724
0.0543754
0.0566816
0.0586063
0.0602248
0.0615831
0.0627165
0.0636604
0.0644408
0.0650806
0.0655982
0.0660087
0.066324
0.066553
0.0667023
0.0667766
-0.0981508
-0.0983561
-0.0987672
-0.0993834
-0.100204
-0.101226
-0.102449
-0.103867
-0.105474
-0.107262
-0.109218
-0.111326
-0.113567
-0.115904
-0.118327
-0.12076
-0.12321
-0.125677
-0.127647
-0.130442
-0.131547
-0.13442
-0.135336
-0.133781
-0.136586
-0.136793
-0.117534
-0.0969764
-0.0959441
-0.0520012
0.0127817
0.034396
0.0297762
0.0284277
0.0274174
0.0359534
0.0360069
0.0465425
0.0485335
0.0485068
0.0517128
0.0523958
0.0547674
0.0560182
0.0576162
0.0588587
0.0600512
0.0610794
0.0619802
0.0627648
0.0634381
0.0640137
0.0645
0.0649061
0.06524
0.0655083
0.0657166
0.0658691
0.0659693
0.0660195
-0.0985445
-0.0987498
-0.0991615
-0.099779
-0.100603
-0.101632
-0.102866
-0.104304
-0.105943
-0.10778
-0.109808
-0.112019
-0.114408
-0.116947
-0.119654
-0.122451
-0.125403
-0.128487
-0.13127
-0.13489
-0.137297
-0.140666
-0.143462
-0.140592
-0.141147
-0.13668
-0.10667
-0.0735621
-0.0581816
-0.0525282
0.0174978
0.0381084
0.0546743
0.0610884
0.0693547
0.0805151
0.0748644
0.0785744
0.0732292
0.0689086
0.0675934
0.0650763
0.0647044
0.0637774
0.0636326
0.0634762
0.0635518
0.0636787
0.0638546
0.0640553
0.0642587
0.0644567
0.0646402
0.064805
0.0649484
0.0650688
0.0651656
0.0652384
0.0652871
0.0653122
-0.098733
-0.0989384
-0.0993506
-0.0999699
-0.100798
-0.101835
-0.103084
-0.104545
-0.106221
-0.108112
-0.110221
-0.112547
-0.115098
-0.117857
-0.120868
-0.124053
-0.127536
-0.131259
-0.134912
-0.139404
-0.143282
-0.147398
-0.152548
-0.149045
-0.148805
-0.142251
-0.10419
-0.0619291
-0.0469885
-0.0339885
0.0312249
0.0636835
0.0676863
0.0848468
0.11481
0.121908
0.111324
0.108423
0.0962987
0.088048
0.0825216
0.0770981
0.0741555
0.0712141
0.0694299
0.0679545
0.0669643
0.0662271
0.0657045
0.0653401
0.065085
0.0649133
0.0647988
0.0647253
0.0646799
0.0646533
0.0646389
0.064632
0.0646293
0.0646291
-0.098716
-0.0989213
-0.0993335
-0.0999539
-0.100785
-0.10183
-0.103092
-0.104575
-0.106287
-0.108232
-0.110421
-0.112861
-0.115576
-0.118552
-0.12187
-0.125441
-0.12946
-0.133825
-0.138397
-0.143822
-0.149354
-0.154556
-0.162602
-0.1594
-0.160217
-0.1541
-0.108856
-0.0671554
-0.16447
-0.143541
0.0386006
0.106627
0.120325
0.151413
0.155501
0.160587
0.145046
0.135021
0.116755
0.105051
0.0957836
0.0878617
0.0826331
0.0779326
0.0746894
0.072037
0.0700823
0.0685589
0.0673957
0.0665093
0.065828
0.0653101
0.0649154
0.0646167
0.064392
0.0642252
0.0641045
0.0640212