/*--------------------------------*- C++ -*----------------------------------*\
  =========                 |
  \\      /  F ield         | OpenFOAM: The Open Source CFD Toolbox
   \\    /   O peration     | Website:  https://openfoam.org
    \\  /    A nd           | Version:  12
     \\/     M anipulation  |
\*---------------------------------------------------------------------------*/
FoamFile
{
    format      ascii;
    class       surfaceScalarField;
    location    "280";
    object      phi;
}
// * * * * * * * * * * * * * * * * * * * * * * * * * * * * * * * * * * * * * //

dimensions      [0 3 -1 0 0 0 0];

internalField   nonuniform List<scalar> 
32440
(
-7.70403e-07
0.0399888
4.61e-07
0.0399888
-2.30638e-06
0.0399908
-1.07155e-06
0.0399888
-3.83296e-06
0.0399908
-2.59009e-06
0.0399988
-3.34103e-06
0.0400108
-4.08418e-06
0.0400107
-2.81584e-06
0.0400107
-1.53302e-06
0.0400107
-2.31814e-07
0.0400107
-4.90871e-06
0.0400047
-5.56154e-06
0.0400007
-6.18336e-06
0.0400006
-6.76899e-06
0.0400006
-7.31261e-06
0.0400005
-7.80827e-06
0.0400005
-8.24989e-06
0.0400004
-8.63145e-06
0.0400004
-8.94721e-06
0.0400003
-9.19181e-06
0.0400002
-9.36086e-06
0.0400002
-9.45066e-06
0.0400001
-9.45887e-06
0.04
-9.38442e-06
0.0399999
-9.22774e-06
0.0399998
-8.99085e-06
0.0399998
-8.67609e-06
0.0399997
-9.89106e-06
0.0400012
-1.51016e-05
0.0400052
-1.61344e-05
0.040001
-1.57783e-05
0.0399996
-1.51829e-05
0.0399994
-1.45582e-05
0.0399994
-1.29139e-05
0.0399984
-1.22595e-05
0.0399993
-1.16043e-05
0.0399993
-1.09565e-05
0.0399994
-1.03238e-05
0.0399994
-9.71252e-06
0.0399994
-9.12812e-06
0.0399994
-8.57486e-06
0.0399994
-8.05594e-06
0.0399995
-7.57349e-06
0.0399995
-7.12872e-06
0.0399996
-6.72196e-06
0.0399996
-6.35277e-06
0.0399996
-6.02019e-06
0.0399997
-5.7223e-06
0.0399997
-5.45717e-06
0.0399997
-5.22245e-06
0.0399998
-7.01543e-06
0.0400018
-1.28334e-05
0.0400058
-6.67336e-06
0.0400058
-2.53217e-06
0.0400079
-2.40674e-06
0.0400099
-2.94001e-07
0.0399979
-1.90729e-07
0.0399879
-9.36833e-08
0.0399899
0.0399879
-2.61555e-06
0.0399914
-5.22779e-06
0.0399914
-7.83481e-06
0.0399934
-1.04336e-05
0.0399914
-1.102e-05
0.0399913
-1.15903e-05
0.0399993
-1.21387e-05
0.0400113
-1.4658e-05
0.0400133
-1.51377e-05
0.0400112
-1.3569e-05
0.0400091
-1.19324e-05
0.0400091
-2.22149e-05
0.040015
-2.84128e-05
0.0400069
-3.0501e-05
0.0400027
-3.24629e-05
0.0400025
-3.42763e-05
0.0400024
-3.59198e-05
0.0400021
-3.73721e-05
0.0400019
-3.86119e-05
0.0400016
-3.96188e-05
0.0400013
-4.03713e-05
0.040001
-4.08599e-05
0.0400007
-4.10693e-05
0.0400003
-4.09917e-05
0.0399999
-4.0624e-05
0.0399996
-3.97688e-05
0.039999
-3.8834e-05
0.0399988
-3.80349e-05
0.0399989
-3.79878e-05
0.0400012
-4.20249e-05
0.0400092
-4.16546e-05
0.0400007
-3.96314e-05
0.0399976
-3.74816e-05
0.0399973
-3.52409e-05
0.0399971
-3.41449e-05
0.0399973
-3.183e-05
0.039997
-2.95254e-05
0.039997
-2.72628e-05
0.0399971
-2.50688e-05
0.0399972
-2.29663e-05
0.0399973
-2.09739e-05
0.0399974
-1.91061e-05
0.0399976
-1.73737e-05
0.0399977
-1.57839e-05
0.0399979
-1.23388e-05
0.0399961
-1.10391e-05
0.0399983
-9.88204e-06
0.0399985
-8.86292e-06
0.0399986
-7.97531e-06
0.0399988
-7.21088e-06
0.039999
-8.55983e-06
0.0400011
-1.20121e-05
0.0400052
-1.35572e-05
0.0400074
-1.11835e-05
0.0400035
-8.8795e-06
0.0400056
-6.63384e-06
0.0400076
-4.34747e-07
0.0399917
-2.27042e-06
0.0399897
-1.29214e-07
0.0399878
0.0399878
-4.52151e-06
0.0399959
-9.03742e-06
0.0399959
-1.15445e-05
0.0399959
-1.60382e-05
0.0399959
-2.25115e-05
0.0399978
-2.09544e-05
0.0399978
-2.53642e-05
0.0400157
-2.77195e-05
0.0400156
-3.00115e-05
0.0400135
-3.22133e-05
0.0400114
-3.431e-05
0.0400112
-4.62529e-05
0.0400269
-5.20539e-05
0.0400127
-5.56705e-05
0.0400063
-5.90572e-05
0.0400059
-6.2187e-05
0.0400055
-6.50192e-05
0.040005
-6.75159e-05
0.0400044
-6.56392e-05
0.0399997
-7.13526e-05
0.040007
-7.2622e-05
0.0400023
-7.34223e-05
0.0400015
-7.37305e-05
0.0400006
-7.35326e-05
0.0399997
-7.28236e-05
0.0399988
-7.16077e-05
0.0399978
-6.99001e-05
0.0399971
-6.77216e-05
0.0399967
-6.67159e-05
0.0400002
-6.94088e-05
0.0400119
-6.75977e-05
0.0399989
-6.41928e-05
0.0399942
-6.03724e-05
0.0399934
-5.64008e-05
0.0399932
-5.13417e-05
0.0399922
-4.72553e-05
0.0399929
-4.32033e-05
0.039993
-3.9239e-05
0.0399931
-3.54048e-05
0.0399933
-3.17431e-05
0.0399936
-2.82864e-05
0.039994
-2.50597e-05
0.0399944
-2.20819e-05
0.0399948
-1.93613e-05
0.0399952
-1.89051e-05
0.0399957
-1.67123e-05
0.0399961
-1.47778e-05
0.0399965
-1.10911e-05
0.039995
-9.63978e-06
0.0399974
-1.04087e-05
0.0399997
-1.13808e-05
0.0400021
-2.05377e-05
0.0400144
-1.38591e-05
0.0400007
-1.1325e-05
0.0400009
-8.9149e-06
0.0400031
-4.60818e-06
0.0400033
-3.84045e-07
0.0399875
-2.21662e-07
0.0399896
-1.00452e-07
0.0399876
0.0399877
-6.46883e-06
0.0400024
-1.29304e-05
0.0400024
-1.93806e-05
0.0400023
-2.58126e-05
0.0400023
-3.02168e-05
0.0400022
-3.65826e-05
0.0400041
-3.68945e-05
0.040016
-4.11416e-05
0.0400199
-4.52905e-05
0.0400177
-5.13256e-05
0.0400174
-5.71979e-05
0.040017
-6.6868e-05
0.0400366
-7.63357e-05
0.0400221
-8.35288e-05
0.0400135
-8.84096e-05
0.0400108
-9.09081e-05
0.040008
-9.29841e-05
0.040007
-8.65875e-05
0.039998
-8.36587e-05
0.0399968
-9.80903e-05
0.0400215
-0.000105908
0.0400101
-0.000107042
0.0400026
-0.00010746
0.040001
-0.000107135
0.0399994
-0.000106071
0.0399978
-0.000104268
0.039996
-0.000101749
0.0399946
-9.87549e-05
0.0399937
-9.63229e-05
0.0399977
-9.76226e-05
0.0400132
-9.42615e-05
0.0399955
-8.91964e-05
0.0399892
-8.342e-05
0.0399877
-7.76315e-05
0.0399874
-7.2925e-05
0.0399875
-6.69921e-05
0.039987
-6.11178e-05
0.0399871
-5.53802e-05
0.0399874
-4.78463e-05
0.0399858
-4.25731e-05
0.0399884
-3.76079e-05
0.039989
-3.29875e-05
0.0399897
-2.87325e-05
0.0399905
-2.48618e-05
0.0399913
-2.13807e-05
0.0399922
-1.8285e-05
0.039993
-1.5566e-05
0.0399938
-1.52106e-05
0.0399946
-1.11981e-05
0.0399934
-9.50541e-06
0.039998
-1.81069e-05
0.0400107
-1.69762e-05
0.0400133
-1.60833e-05
0.0399998
-1.33991e-05
0.0399982
-1.08938e-05
0.0400006
-2.53721e-06
0.039995
-2.29916e-06
0.0399872
-1.50001e-07
0.0399874
-6.00801e-08
0.0399876
0.0399876
-8.42466e-06
0.0400108
-1.68415e-05
0.0400108
-2.52455e-05
0.0400107
-3.36262e-05
0.0400107
-4.19778e-05
0.0400106
-4.82801e-05
0.0400104
-4.85173e-05
0.0400163
-5.66693e-05
0.040028
-6.47079e-05
0.0400257
-7.05959e-05
0.0400233
-7.62904e-05
0.0400227
-8.37302e-05
0.040044
-9.88815e-05
0.0400373
-0.000107703
0.0400223
-0.000114111
0.0400172
-0.000120039
0.0400139
-0.00011941
0.0400064
-0.000110185
0.0399888
-0.000120207
0.0400068
-0.000133396
0.0400347
-0.000139779
0.0400165
-0.000141255
0.0400041
-0.000141788
0.0400016
-0.000141346
0.039999
-0.000139905
0.0399963
-0.000137478
0.0399935
-0.000134096
0.0399912
-0.000129801
0.0399894
-0.000126284
0.0399942
-0.000126091
0.040013
-0.000121104
0.0399905
-0.000114069
0.0399821
-0.000106842
0.0399804
-9.89496e-05
0.0399795
-9.03095e-05
0.0399789
-8.24487e-05
0.0399792
-7.46817e-05
0.0399793
-6.71091e-05
0.0399798
-6.18289e-05
0.0399805
-5.49082e-05
0.0399814
-4.84103e-05
0.0399825
-4.03813e-05
0.0399817
-3.48497e-05
0.039985
-2.98354e-05
0.0399863
-2.53399e-05
0.0399877
-2.1362e-05
0.039989
-1.78871e-05
0.0399903
-1.48919e-05
0.0399916
-1.43512e-05
0.0399928
-2.02318e-05
0.0400039
-3.05004e-05
0.040021
-1.71195e-05
0.0399999
-1.40502e-05
0.0399967
-1.32537e-05
0.0399975
-8.69058e-06
0.0399961
-3.21068e-07
0.0399866
-1.05756e-07
0.039987
-6.03524e-09
0.0399873
1.66707e-08
0.0399875
0.0399876
-1.03715e-05
0.0400212
-1.87347e-05
0.0400191
-2.90862e-05
0.0400211
-3.94148e-05
0.040021
-4.97087e-05
0.0400209
-5.99507e-05
0.0400207
-6.61187e-05
0.0400224
-7.01886e-05
0.0400321
-8.01295e-05
0.0400356
-8.98949e-05
0.040033
-9.74484e-05
0.0400303
-8.87228e-05
0.0400353
-0.000115556
0.0400641
-0.000132033
0.0400388
-0.000142007
0.0400272
-0.000147392
0.0400193
-0.000146115
0.0400051
-0.000148065
0.0399907
-0.000157077
0.0400158
-0.000169092
0.0400467
-0.000174081
0.0400215
-0.000175929
0.0400059
-0.000176579
0.0400022
-0.000175986
0.0399984
-0.000174126
0.0399945
-0.000171027
0.0399904
-0.000166515
0.0399867
-0.000161462
0.0399844
-0.000156336
0.0399891
-0.000154557
0.0400113
-0.00014782
0.0399838
-0.00013911
0.0399734
-0.000129511
0.0399708
-0.000119983
0.03997
-0.000111101
0.03997
-0.000101222
0.0399693
-8.94826e-05
0.0399676
-8.00151e-05
0.0399703
-7.09341e-05
0.0399714
-6.23322e-05
0.0399728
-5.42861e-05
0.0399745
-4.88418e-05
0.0399763
-4.2045e-05
0.0399782
-3.39071e-05
0.0399782
-2.84354e-05
0.0399822
-2.3617e-05
0.0399842
-1.94326e-05
0.0399862
-1.58527e-05
0.039988
-1.48406e-05
0.0399918
-2.23539e-05
0.0400114
-1.83506e-05
0.040017
-1.47814e-05
0.0399963
-1.35981e-05
0.0399955
-1.07515e-05
0.0399946
-1.91904e-07
0.0399855
1.30468e-07
0.0399863
2.63526e-07
0.0399869
2.55024e-07
0.0399873
1.52253e-07
0.0399876
0.0399878
-1.22978e-05
0.0400335
-2.45912e-05
0.0400314
-3.68728e-05
0.0400334
-4.91328e-05
0.0400333
-6.13587e-05
0.0400331
-7.35318e-05
0.0400329
-8.3628e-05
0.0400325
-8.76091e-05
0.0400361
-9.74575e-05
0.0400455
-0.000107112
0.0400427
-0.000118521
0.0400417
-0.000125623
0.0400424
-0.000134248
0.0400727
-0.000158419
0.040063
-0.000168022
0.0400368
-0.00017093
0.0400222
-0.000159092
0.0399933
-0.000182242
0.0400139
-0.000192298
0.0400259
-0.000203165
0.0400575
-0.000208788
0.0400271
-0.000211023
0.0400082
-0.000211793
0.040003
-0.00021103
0.0399976
-0.000208743
0.0399922
-0.000204708
0.0399864
-0.000199582
0.0399816
-0.000192833
0.0399776
-0.000186395
0.0399826
-0.000182895
0.0400078
-0.00017424
0.0399751
-0.000163306
0.0399625
-0.000151984
0.0399595
-0.000139892
0.0399579
-0.000127036
0.0399571
-0.000115011
0.0399572
-0.000105194
0.0399578
-9.37493e-05
0.0399589
-8.2812e-05
0.0399605
-7.04946e-05
0.0399605
-6.08801e-05
0.0399648
-5.20316e-05
0.0399674
-4.39878e-05
0.0399701
-3.8766e-05
0.039973
-3.03636e-05
0.0399738
-2.4766e-05
0.0399786
-1.99413e-05
0.0399813
-1.58507e-05
0.0399839
-2.44441e-05
0.0400004
-3.76714e-05
0.0400247
-1.74801e-05
0.0399968
-1.38064e-05
0.0399926
-1.05926e-05
0.0399923
-1.77826e-06
0.0399858
-1.30227e-06
0.039985
-1.10706e-06
0.0399861
-1.13497e-06
0.0399869
-1.32943e-06
0.0399875
3.65352e-07
0.0399859
0.0399882
-1.21921e-05
0.0400457
-2.83905e-05
0.0400476
-4.25773e-05
0.0400476
-5.47435e-05
0.0400454
-6.88832e-05
0.0400472
-8.29745e-05
0.0400469
-9.6988e-05
0.0400465
-0.000106901
0.040046
-0.00011466
0.0400532
-0.000128224
0.0400563
-0.000141517
0.040055
-0.000150503
0.0400514
-0.00013905
0.0400613
-0.000172848
0.0400968
-0.000198128
0.0400621
-0.00020461
0.0400287
-0.000206221
0.0399949
-0.000216677
0.0400243
-0.000225889
0.0400351
-0.000237684
0.0400693
-0.000243967
0.0400334
-0.000246635
0.0400108
-0.000247524
0.0400039
-0.000246611
0.0399967
-0.000243825
0.0399894
-0.000239171
0.0399818
-0.000232729
0.0399751
-0.000224594
0.0399695
-0.000216682
0.0399747
-0.000211056
0.0400021
-0.000200332
0.0399644
-0.000187356
0.0399495
-0.000173522
0.0399457
-0.000159288
0.0399436
-0.000143892
0.0399417
-0.000129572
0.0399429
-0.000115567
0.0399438
-0.000102048
0.0399454
-8.91851e-05
0.0399476
-7.91045e-05
0.0399504
-6.59109e-05
0.0399516
-5.56661e-05
0.0399572
-4.64038e-05
0.0399609
-3.81447e-05
0.0399647
-3.08789e-05
0.0399665
-2.4576e-05
0.0399723
-1.91957e-05
0.039976
-1.86862e-05
0.0399834
-2.69817e-05
0.0400087
-2.20248e-05
0.0400197
-1.57449e-05
0.0399905
-1.2069e-05
0.039989
-9.26104e-07
0.0399812
1.75856e-06
0.0399831
2.05328e-06
0.0399847
2.02582e-06
0.0399861
1.74302e-06
0.0399872
1.26997e-06
0.039988
6.70577e-07
0.0399865
0.0399888
-1.60555e-05
0.0400617
-3.21195e-05
0.0400637
-4.61759e-05
0.0400616
-6.42289e-05
0.0400635
-7.82549e-05
0.0400613
-9.42465e-05
0.0400629
-0.000110175
0.0400625
-0.000126006
0.0400618
-0.000133674
0.0400609
-0.000147159
0.0400697
-0.000162379
0.0400702
-0.000177232
0.0400662
-0.000185628
0.0400697
-0.000207306
0.0401185
-0.000222328
0.0400771
-0.000224507
0.0400309
-0.000239645
0.0400101
-0.000251513
0.0400362
-0.000259943
0.0400435
-0.000272726
0.0400821
-0.000279788
0.0400404
-0.000282917
0.0400139
-0.000283975
0.0400049
-0.000282871
0.0399956
-0.000279538
0.0399861
-0.000274022
0.0399762
-0.000266343
0.0399675
-0.000256817
0.03996
-0.000246643
0.0399646
-0.000239119
0.0399946
-0.000226066
0.0399513
-0.000210634
0.0399341
-0.000194052
0.0399291
-0.000177226
0.0399268
-0.000161488
0.039926
-0.000144707
0.0399261
-0.000128349
0.0399274
-0.000110645
0.0399277
-9.57743e-05
0.0399328
-8.18921e-05
0.0399365
-7.10923e-05
0.0399408
-5.74627e-05
0.0399435
-4.7029e-05
0.0399504
-3.7794e-05
0.0399555
-3.17385e-05
0.0399605
-2.28259e-05
0.0399634
-1.89955e-05
0.0399721
-2.81723e-05
0.0399926
-4.42831e-05
0.0400248
-1.52675e-05
0.0399907
-1.10192e-05
0.0399862
5.39499e-07
0.0399774
1.49832e-06
0.0399802
1.93855e-06
0.0399827
1.93996e-06
0.0399847
1.58027e-06
0.0399865
2.9353e-06
0.0399858
2.07812e-06
0.0399889
-9.19879e-07
0.0399895
0.0399879
-1.78727e-05
0.0400796
-3.37585e-05
0.0400796
-5.36568e-05
0.0400815
-6.95484e-05
0.0400794
-8.94427e-05
0.0400812
-0.000107312
0.0400808
-0.000123132
0.0400783
-0.000140877
0.0400796
-0.000158495
0.0400785
-0.000165897
0.0400771
-0.000181055
0.0400854
-0.000199852
0.040085
-0.000214159
0.040084
-0.000219792
0.0401241
-0.000238671
0.040096
-0.000232714
0.0400249
-0.000267455
0.0400448
-0.000282805
0.0400515
-0.00029658
0.0400573
-0.000306491
0.040092
-0.000314393
0.0400483
-0.000320054
0.0400196
-0.000321331
0.0400062
-0.000320035
0.0399943
-0.000316159
0.0399822
-0.000309634
0.0399697
-0.000300376
0.0399582
-0.000289124
0.0399487
-0.000277041
0.0399525
-0.000267119
0.0399847
-0.000251262
0.0399355
-0.000233087
0.0399159
-0.000214064
0.0399101
-0.000194196
0.0399069
-0.000173656
0.0399054
-0.000154188
0.0399067
-0.000135304
0.0399085
-0.000119264
0.0399116
-0.000100296
0.0399138
-8.45493e-05
0.0399208
-7.0147e-05
0.0399264
-5.91473e-05
0.0399325
-4.55872e-05
0.0399369
-3.54544e-05
0.0399453
-2.67124e-05
0.0399517
-2.13005e-05
0.039958
-1.71411e-05
0.039968
-2.21412e-05
0.0399976
-1.82103e-05
0.0400209
-9.26215e-06
0.0399817
2.81401e-06
0.0399742
4.12505e-06
0.0399761
4.76629e-06
0.0399796
4.83301e-06
0.0399826
4.41564e-06
0.0399852
5.60162e-06
0.0399853
2.4751e-06
0.039989
3.11694e-06
0.0399882
1.60516e-06
0.039991
0.0399895
-1.96382e-05
0.0400992
-3.93044e-05
0.0400992
-5.69812e-05
0.0400992
-7.86861e-05
0.0401011
-9.63907e-05
0.0400989
-0.000116115
0.0401005
-0.000135817
0.040098
-0.00015547
0.0400992
-0.000175026
0.0400981
-0.000194419
0.0400965
-0.000203547
0.0400945
-0.000220343
0.0401018
-0.000236755
0.0401004
-0.000218541
0.0401059
-0.000259152
0.0401366
-0.000283063
0.0400488
-0.000303597
0.0400653
-0.000318663
0.0400666
-0.000327949
0.0400666
-0.000333161
0.0400972
-0.000352029
0.0400672
-0.000358346
0.0400259
-0.000359863
0.0400077
-0.000358449
0.0399929
-0.00035393
0.0399777
-0.00034636
0.0399621
-0.000335758
0.0399476
-0.000322492
0.0399354
-0.000307847
0.0399378
-0.00029523
0.0399721
-0.000276616
0.0399169
-0.000255297
0.0398946
-0.000232691
0.0398875
-0.000210032
0.0398843
-0.000188175
0.0398836
-0.000165767
0.0398843
-0.000142149
0.0398849
-0.000121623
0.0398911
-0.000104435
0.0398966
-8.47761e-05
0.0399011
-6.87492e-05
0.0399104
-5.44209e-05
0.0399182
-4.18063e-05
0.0399243
-3.08716e-05
0.0399344
-2.15595e-05
0.0399424
-1.77816e-05
0.0399542
-3.14245e-05
0.0399816
-3.83973e-05
0.0400046
-8.60003e-06
0.0399911
4.11562e-06
0.039969
7.87039e-06
0.0399704
8.7796e-06
0.0399752
8.95569e-06
0.0399794
1.05057e-05
0.039981
9.53081e-06
0.0399861
6.12916e-06
0.0399887
6.39129e-06
0.0399887
2.4048e-06
0.0399922
2.25461e-06
0.0399912
0.0399918
-2.13425e-05
0.0401206
-4.2727e-05
0.0401206
-6.4141e-05
0.0401206
-8.35884e-05
0.0401205
-0.000107091
0.0401224
-0.000126619
0.0401201
-0.000150181
0.0401215
-0.000169716
0.0401187
-0.000191223
0.0401196
-0.000212606
0.0401179
-0.000233788
0.0401157
-0.000244629
0.0401127
-0.000263055
0.0401188
-0.00027495
0.0401178
-0.000285797
0.0401474
-0.000319678
0.0400827
-0.00033824
0.0400839
-0.000351212
0.0400796
-0.000358281
0.0400737
-0.000341108
0.0400801
-0.00037695
0.040103
-0.000396047
0.040045
-0.000399966
0.0400116
-0.000398432
0.0399913
-0.000393297
0.0399725
-0.000384325
0.0399532
-0.000372169
0.0399354
-0.000356486
0.0399198
-0.000339321
0.0399207
-0.000323563
0.0399563
-0.000301561
0.0398949
-0.000276503
0.0398695
-0.000250637
0.0398616
-0.000223991
0.0398576
-0.000196875
0.0398565
-0.000171193
0.0398586
-0.00014857
0.0398623
-0.000123381
0.0398659
-0.000101864
0.0398751
-8.42191e-05
0.0398835
-6.45748e-05
0.0398908
-4.89626e-05
0.0399026
-3.73741e-05
0.0399127
-2.37644e-05
0.0399208
-1.60266e-05
0.0399347
-2.00379e-05
0.0399582
-3.76592e-05
0.0399992
-1.48176e-05
0.0399817
8.68165e-06
0.0399676
1.29938e-05
0.0399647
1.42505e-05
0.0399691
1.45874e-05
0.0399749
1.41359e-05
0.0399799
1.30128e-05
0.0399822
1.1331e-05
0.0399878
1.11968e-05
0.0399888
8.70815e-06
0.0399912
5.95823e-06
0.0399949
3.03634e-06
0.0399941
0.0399948
-2.29757e-05
0.0401435
-4.60098e-05
0.0401437
-6.90911e-05
0.0401437
-9.22378e-05
0.0401437
-0.000113456
0.0401436
-0.000136762
0.0401434
-0.000160142
0.0401449
-0.000183571
0.0401422
-0.000207014
0.040143
-0.000230407
0.0401413
-0.000251646
0.0401369
-0.000274669
0.0401357
-0.000289273
0.0401334
-0.000307459
0.040136
-0.000294922
0.0401349
-0.000340788
0.0401286
-0.000369452
0.0401126
-0.000388497
0.0400986
-0.000401529
0.0400867
-0.000404025
0.0400826
-0.000427367
0.0401264
-0.000439526
0.0400572
-0.000441993
0.0400141
-0.000440422
0.0399898
-0.000434674
0.0399668
-0.000424585
0.0399431
-0.000410315
0.0399212
-0.000392213
0.0399017
-0.000371712
0.0399002
-0.000352369
0.039937
-0.00032646
0.039869
-0.000297471
0.0398405
-0.000267043
0.0398312
-0.000236469
0.0398271
-0.000207438
0.0398274
-0.000176125
0.0398273
-0.000148219
0.0398344
-0.000124122
0.0398418
-9.81516e-05
0.0398491
-7.64831e-05
0.0398618
-5.92216e-05
0.0398735
-4.04059e-05
0.0398838
-2.59748e-05
0.0398983
-1.38365e-05
0.0399087
-9.84639e-06
0.0399307
-1.38496e-05
0.0399622
-7.6952e-06
0.0399931
1.47748e-05
0.0399593
1.9785e-05
0.0399626
2.14872e-05
0.039963
2.20489e-05
0.0399686
2.16278e-05
0.0399753
2.23681e-05
0.0399791
1.84024e-05
0.0399861
1.78525e-05
0.0399884
1.28316e-05
0.0399938
9.44449e-06
0.0399946
7.78898e-06
0.0399966
3.95635e-06
0.0399979
0.0399988
-2.45256e-05
0.0401681
-4.71168e-05
0.0401663
-7.17909e-05
0.0401684
-9.65604e-05
0.0401684
-0.00012145
0.0401685
-0.000146476
0.0401684
-0.000171639
0.0401701
-0.000196925
0.0401675
-0.000222307
0.0401684
-0.00024572
0.0401647
-0.000273108
0.0401643
-0.000298337
0.0401609
-0.000321253
0.0401563
-0.000335681
0.0401504
-0.000355508
0.0401547
-0.000381991
0.0401551
-0.00040524
0.0401358
-0.000424724
0.0401181
-0.000441974
0.040104
-0.000456527
0.0400971
-0.000473689
0.0401435
-0.000483198
0.0400667
-0.000486452
0.0400174
-0.000485036
0.0399884
-0.000478632
0.0399604
-0.000467184
0.0399316
-0.000450463
0.0399045
-0.000429429
0.0398806
-0.000405453
0.0398762
-0.000381917
0.0399134
-0.000351402
0.0398384
-0.0003174
0.0398065
-0.00028235
0.0397961
-0.000247071
0.0397918
-0.000211581
0.0397919
-0.000180165
0.0397959
-0.000146636
0.0398009
-0.000117419
0.0398126
-9.28361e-05
0.0398245
-6.71051e-05
0.0398361
-4.62831e-05
0.0398527
-2.8357e-05
0.0398659
-1.3234e-05
0.0398831
-6.75435e-06
0.0399022
-2.07025e-05
0.0399446
-2.69264e-05
0.0399684
1.47136e-05
0.0399514
2.65726e-05
0.0399474
2.88426e-05
0.0399603
3.17003e-05
0.0399602
3.13509e-05
0.0399689
2.99646e-05
0.0399767
2.77041e-05
0.0399814
2.47132e-05
0.0399891
2.11238e-05
0.039992
1.90558e-05
0.0399959
1.46165e-05
0.039999
9.90587e-06
0.0400013
5.01896e-06
0.0400028
0.0400038
-2.59794e-05
0.0401941
-5.20561e-05
0.0401923
-7.8228e-05
0.0401945
-0.000104536
0.0401947
-0.000131015
0.040195
-0.000157693
0.0401951
-0.000182576
0.040195
-0.000209684
0.0401946
-0.000234967
0.0401937
-0.000264449
0.0401942
-0.000289984
0.0401898
-0.000317491
0.0401884
-0.00034486
0.0401837
-0.000371843
0.0401774
-0.000390174
0.0401731
-0.000415517
0.0401804
-0.000439582
0.0401599
-0.000461909
0.0401404
-0.000481894
0.0401239
-0.000498918
0.0401141
-0.000516322
0.0401609
-0.000529551
0.0400799
-0.000533932
0.0400217
-0.000532877
0.0399873
-0.000525965
0.0399535
-0.000512962
0.0399186
-0.000493986
0.0398855
-0.000469255
0.0398559
-0.000441029
0.039848
-0.000412476
0.0398849
-0.000376542
0.0398025
-0.000337126
0.0397671
-0.00029639
0.0397554
-0.000255662
0.039751
-0.000214873
0.0397512
-0.000176854
0.0397578
-0.000143279
0.0397673
-0.000108685
0.039778
-7.93774e-05
0.0397952
-5.35503e-05
0.0398103
-3.12321e-05
0.0398304
-1.23562e-05
0.039847
1.24901e-06
0.0398695
-4.15993e-06
0.0399076
-2.23237e-05
0.0399628
1.48322e-05
0.0399313
3.57476e-05
0.0399305
3.87236e-05
0.0399444
4.39733e-05
0.039955
4.17342e-05
0.0399624
4.22255e-05
0.0399684
3.9652e-05
0.0399792
3.61819e-05
0.0399848
3.39734e-05
0.0399913
2.71644e-05
0.0399988
2.18797e-05
0.0400012
1.62294e-05
0.0400047
1.23149e-05
0.0400052
6.22623e-06
0.0400089
0.04001
-2.53101e-05
0.0402194
-5.47651e-05
0.0402218
-8.2332e-05
0.0402221
-0.000108066
0.0402205
-0.000136042
0.0402229
-0.000164284
0.0402233
-0.000192847
0.0402235
-0.000221727
0.0402234
-0.000250928
0.0402229
-0.000278416
0.0402217
-0.000310168
0.0402216
-0.000340059
0.0402183
-0.00036795
0.0402116
-0.000397646
0.0402071
-0.000424928
0.0402003
-0.000447325
0.0402028
-0.000476584
0.0401891
-0.000500131
0.040164
-0.000523338
0.0401472
-0.000541487
0.0401323
-0.00054573
0.0401652
-0.000575171
0.0401094
-0.000585138
0.0400317
-0.000584791
0.039987
-0.000577504
0.0399462
-0.000562939
0.0399041
-0.00054107
0.0398636
-0.00051255
0.0398274
-0.000478981
0.0398144
-0.000444534
0.0398504
-0.000402128
0.0397601
-0.000355982
0.039721
-0.000308393
0.0397078
-0.000261275
0.0397039
-0.000216793
0.0397067
-0.000171561
0.0397126
-0.00013152
0.0397272
-9.52475e-05
0.0397417
-6.30879e-05
0.0397631
-3.51818e-05
0.0397824
-1.1505e-05
0.0398067
6.11038e-06
0.0398294
1.79194e-05
0.0398577
1.42783e-05
0.0399112
3.34312e-05
0.0399437
4.77347e-05
0.039917
5.36087e-05
0.0399246
5.33881e-05
0.0399447
5.72916e-05
0.0399511
5.76606e-05
0.039962
5.4733e-05
0.0399714
5.07252e-05
0.0399832
4.58241e-05
0.0399897
4.01926e-05
0.039997
3.59819e-05
0.040003
2.93093e-05
0.0400079
2.22873e-05
0.0400117
1.30125e-05
0.0400145
7.57758e-06
0.0400144
0.0400176
-2.8536e-05
0.0402479
-5.72221e-05
0.0402505
-8.40491e-05
0.0402489
-0.000115128
0.0402516
-0.000142479
0.0402503
-0.0001722
0.040253
-0.000202333
0.0402537
-0.000232915
0.040254
-0.000263966
0.040254
-0.000295471
0.0402532
-0.00032543
0.0402515
-0.000357754
0.0402506
-0.000390302
0.0402441
-0.000422954
0.0402397
-0.000455369
0.0402328
-0.000487247
0.0402347
-0.000510081
0.040212
-0.000541405
0.0401953
-0.00056448
0.0401702
-0.000580596
0.0401484
-0.000558678
0.0401433
-0.000610741
0.0401614
-0.00063892
0.0400599
-0.000641772
0.0399898
-0.000634382
0.0399388
-0.000618221
0.0398879
-0.000593149
0.0398385
-0.000559607
0.0397938
-0.000520148
0.0397749
-0.00047851
0.0398088
-0.000428324
0.0397099
-0.00037391
0.0396665
-0.000318609
0.0396525
-0.000264002
0.0396493
-0.00021073
0.0396534
-0.000163522
0.0396654
-0.000116514
0.0396802
-7.82674e-05
0.0397035
-4.11661e-05
0.039726
-1.32503e-05
0.0397544
1.35597e-05
0.0397799
2.76079e-05
0.0398153
1.13642e-05
0.039874
1.30834e-05
0.0399095
5.7064e-05
0.0398997
7.40504e-05
0.0399
7.6442e-05
0.0399223
7.66175e-05
0.0399445
7.48557e-05
0.0399529
7.35236e-05
0.0399634
6.68963e-05
0.039978
6.31973e-05
0.0399869
5.66326e-05
0.0399963
4.93727e-05
0.0400042
4.15642e-05
0.0400108
3.33301e-05
0.0400161
2.67783e-05
0.0400182
1.7997e-05
0.0400233
9.06965e-06
0.0400233
0.0400266
-2.96074e-05
0.0402775
-5.93927e-05
0.0402803
-8.93647e-05
0.0402789
-0.000117603
0.0402798
-0.000150238
0.0402829
-0.000179297
0.0402821
-0.000210897
0.0402853
-0.00024309
0.0402862
-0.000275922
0.0402868
-0.000309423
0.0402867
-0.000343592
0.0402857
-0.000376376
0.0402834
-0.000413729
0.0402815
-0.000447442
0.0402734
-0.000483317
0.0402686
-0.000518958
0.0402703
-0.000553949
0.040247
-0.000579628
0.040221
-0.000611307
0.0402019
-0.000637974
0.0401751
-0.000648496
0.0401538
-0.000680841
0.0401938
-0.000702284
0.0400813
-0.000705175
0.0399927
-0.000698145
0.0399318
-0.000680319
0.0398701
-0.000651571
0.0398098
-0.000612609
0.0397549
-0.000565525
0.0397279
-0.000515096
0.0397584
-0.000455368
0.0396502
-0.000391241
0.0396024
-0.000326622
0.0395879
-0.00026297
0.0395857
-0.000201792
0.0395922
-0.000145813
0.0396094
-9.52565e-05
0.0396297
-5.07575e-05
0.039659
-1.26544e-05
0.0396879
1.90733e-05
0.0397227
4.07275e-05
0.0397582
4.28215e-05
0.0398132
2.59894e-05
0.0398908
6.83098e-05
0.0398672
9.47452e-05
0.0398732
9.99672e-05
0.0398948
9.84349e-05
0.0399238
9.85502e-05
0.0399444
9.67371e-05
0.0399547
8.93608e-05
0.0399707
8.47147e-05
0.0399826
7.7053e-05
0.0399946
6.8584e-05
0.0400048
5.94809e-05
0.0400133
5.18897e-05
0.0400184
4.19238e-05
0.0400261
2.96812e-05
0.0400305
2.12501e-05
0.0400317
8.69219e-06
0.0400358
0.0400353
-3.05169e-05
0.040308
-5.92242e-05
0.040309
-9.21869e-05
0.0403119
-0.000123468
0.0403111
-0.00015318
0.0403126
-0.000187475
0.0403164
-0.000218382
0.0403162
-0.000252076
0.0403199
-0.000284573
0.0403193
-0.000319981
0.0403221
-0.000356308
0.040322
-0.000393614
0.0403207
-0.000431805
0.0403197
-0.000470785
0.0403124
-0.000510362
0.0403082
-0.000548196
0.0403081
-0.000587853
0.0402866
-0.000628745
0.0402619
-0.000659843
0.040233
-0.000692251
0.0402075
-0.000718398
0.0401799
-0.000728481
0.0402039
-0.000764514
0.0401174
-0.000776576
0.0400048
-0.000770621
0.0399258
-0.000751366
0.0398508
-0.000718421
0.0397768
-0.000672349
0.0397088
-0.000616331
0.0396718
-0.000555109
0.0396972
-0.000483617
0.0395787
-0.000407732
0.0395265
-0.000331256
0.0395114
-0.000257112
0.0395115
-0.000188915
0.039524
-0.000123234
0.0395437
-6.84551e-05
0.0395749
-1.7436e-05
0.039608
1.96368e-05
0.0396508
4.69158e-05
0.0396954
6.68932e-05
0.0397383
7.63581e-05
0.0398038
9.99649e-05
0.0398672
0.000120472
0.0398467
0.000128805
0.0398649
0.00012568
0.0398979
0.000121708
0.0399278
0.000123248
0.0399428
0.000116935
0.039961
0.000111133
0.0399765
0.000102149
0.0399916
9.22419e-05
0.0400045
8.16201e-05
0.0400154
7.24683e-05
0.0400225
5.89035e-05
0.0400319
4.90449e-05
0.0400359
3.69705e-05
0.0400426
2.47515e-05
0.0400439
1.24415e-05
0.0400482
0.0400478
-3.12467e-05
0.0403393
-6.27272e-05
0.0403404
-9.24523e-05
0.0403416
-0.000124586
0.0403432
-0.000159262
0.0403473
-0.00019056
0.0403477
-0.000224663
0.0403503
-0.000259683
0.0403549
-0.000295737
0.0403553
-0.000332941
0.0403593
-0.000371384
0.0403605
-0.00041113
0.0403605
-0.000450186
0.0403587
-0.000492518
0.0403548
-0.00053404
0.0403497
-0.000576561
0.0403507
-0.000623387
0.0403334
-0.000668129
0.0403066
-0.000711941
0.0402768
-0.000745362
0.0402409
-0.000773244
0.0402078
-0.000753195
0.0401838
-0.000821053
0.0401852
-0.000855837
0.0400395
-0.000854112
0.0399241
-0.000833732
0.0398304
-0.000795789
0.0397389
-0.000741785
0.0396548
-0.000674118
0.0396042
-0.000599218
0.0396223
-0.000513043
0.0394925
-0.000422226
0.0394357
-0.000332053
0.0394212
-0.000245664
0.0394251
-0.000164589
0.039443
-9.2067e-05
0.0394712
-2.85152e-05
0.0395114
2.12995e-05
0.0395582
5.11908e-05
0.0396209
6.15974e-05
0.039685
6.73046e-05
0.0397325
8.72563e-05
0.0397838
0.000146277
0.0398082
0.000162063
0.0398309
0.000163462
0.0398635
0.000159274
0.0399021
0.000156133
0.0399309
0.000150647
0.0399483
0.000143392
0.0399683
0.00013277
0.0399872
0.000121109
0.0400033
0.000108672
0.0400169
9.76663e-05
0.0400264
8.22466e-05
0.0400379
7.05415e-05
0.0400436
5.4631e-05
0.0400518
4.25937e-05
0.0400546
2.64654e-05
0.0400601
1.42946e-05
0.0400603
0.0400621
-3.17787e-05
0.040371
-6.38198e-05
0.0403725
-9.61527e-05
0.0403739
-0.000128943
0.040376
-0.000160314
0.0403787
-0.000194465
0.0403818
-0.00022954
0.0403854
-0.000265691
0.0403911
-0.000303121
0.0403928
-0.000341956
0.0403981
-0.000380339
0.0403989
-0.00042243
0.0404026
-0.000466377
0.0404027
-0.000512196
0.0404006
-0.000557927
0.0403955
-0.000599514
0.0403923
-0.000653957
0.0403879
-0.000709435
0.0403621
-0.000760908
0.0403283
-0.000811115
0.0402911
-0.00084817
0.0402449
-0.000877711
0.0402133
-0.000923359
0.0402309
-0.000950267
0.0400665
-0.000952696
0.0399265
-0.000932019
0.0398098
-0.000888626
0.0396955
-0.000823881
0.03959
-0.000741983
0.0395223
-0.000649226
0.0395295
-0.000544567
0.0393879
-0.000435694
0.0393268
-0.000328322
0.0393139
-0.00022688
0.0393237
-0.000133601
0.0393497
-5.30593e-05
0.0393907
1.65514e-05
0.0394417
5.9504e-05
0.0395152
9.16828e-05
0.0395887
0.000127994
0.0396487
0.000138264
0.0397223
0.000175359
0.0397467
0.000203157
0.0397804
0.000209301
0.0398247
0.000202876
0.0398699
0.000192858
0.0399121
0.00018981
0.0399339
0.000180672
0.0399574
0.000167979
0.039981
0.000154126
0.040001
0.00014145
0.040016
0.000126195
0.0400322
0.000110574
0.040042
9.47047e-05
0.0400538
7.86943e-05
0.0400597
6.46116e-05
0.0400659
4.64874e-05
0.0400727
3.23619e-05
0.0400742
1.62332e-05
0.0400765
0.0400783
-3.20966e-05
0.0404031
-6.44821e-05
0.0404049
-9.71976e-05
0.0404066
-0.000128392
0.0404072
-0.000162286
0.0404126
-0.000197044
0.0404166
-0.00023488
0.0404232
-0.000269933
0.0404261
-0.000308479
0.0404313
-0.000346697
0.0404364
-0.000390877
0.040443
-0.000433156
0.0404448
-0.000479788
0.0404493
-0.000529001
0.0404498
-0.000580867
0.0404473
-0.000631468
0.0404429
-0.000690398
0.0404468
-0.000749465
0.0404212
-0.000810084
0.0403889
-0.000870818
0.0403518
-0.000929727
0.0403038
-0.000974013
0.0402576
-0.00101312
0.04027
-0.00105873
0.0401121
-0.00106743
0.0399352
-0.00104676
0.0397891
-0.000997076
0.0396458
-0.00091921
0.0395122
-0.000816917
0.03942
-0.000700665
0.0394132
-0.000574428
0.0392616
-0.000442486
0.0391949
-0.000314776
0.0391861
-0.000196356
0.0392053
-9.10002e-05
0.0392443
2.05177e-06
0.0392976
6.40174e-05
0.0393798
0.000109719
0.0394695
0.000161063
0.0395374
0.000205918
0.0396039
0.000234879
0.0396933
0.000255866
0.0397257
0.000261137
0.0397751
0.000258386
0.0398275
0.000249009
0.0398793
0.000240084
0.039921
0.000228514
0.0399455
0.000215132