/*--------------------------------*- C++ -*----------------------------------*\
  =========                 |
  \\      /  F ield         | OpenFOAM: The Open Source CFD Toolbox
   \\    /   O peration     | Website:  https://openfoam.org
    \\  /    A nd           | Version:  12
     \\/     M anipulation  |
\*---------------------------------------------------------------------------*/
FoamFile
{
    format      ascii;
    class       volVectorField;
    location    "280";
    object      U;
}
// * * * * * * * * * * * * * * * * * * * * * * * * * * * * * * * * * * * * * //

dimensions      [0 1 -1 0 0 0 0];

internalField   nonuniform List<vector> 
16227
(
(2 -1.72702e-05 -1.86366e-23)
(2 -5.17516e-05 1.91828e-23)
(2 -8.6148e-05 -1.9183e-23)
(2 -0.000120464 -2.04669e-23)
(2 -0.000154641 2.04671e-23)
(2 -0.000188608 2.25952e-23)
(2 -0.000222316 1.38252e-24)
(2 -0.000255669 -4.95341e-23)
(2 -0.000288546 8.02735e-23)
(2 -0.000320794 -5.47122e-23)
(2 -0.000352248 0)
(2 -0.000382741 6.52459e-23)
(2 -0.000412096 0)
(2 -0.000440125 0)
(2 -0.000466531 0)
(2 -0.00049106 0)
(2 -0.000513435 0)
(2 -0.000533371 0)
(2 -0.000550585 0)
(2 -0.000564806 0)
(2 -0.000575778 -1.24473e-22)
(2 -0.000583282 -7.26448e-24)
(2 -0.000587136 1.31737e-22)
(2 -0.000587214 0)
(2 -0.00058345 -1.53633e-22)
(2 -0.00057585 1.53634e-22)
(2 -0.000564496 0)
(2 -0.000549518 8.56962e-23)
(2 -0.000531172 0)
(2 -0.000509787 0)
(2 -0.000485695 0)
(2 -0.000459325 0)
(2 -0.000431093 0)
(2 -0.000401498 2.09795e-22)
(2 -0.000371015 4.6236e-24)
(2 -0.000340123 -2.14425e-22)
(2 -0.000309266 0)
(2 -0.000278868 2.25998e-22)
(2 -0.000249306 3.10791e-24)
(2 -0.000220908 -2.29109e-22)
(2 -0.000193948 0)
(2 -0.000168646 0)
(2 -0.000145166 0)
(2 -0.000123619 0)
(2 -0.000104067 0)
(2 -8.65285e-05 0)
(2 -7.09804e-05 0)
(2 -5.737e-05 0)
(2 -4.56122e-05 0)
(2 -3.55987e-05 0)
(2 -2.72083e-05 0)
(2 -2.03046e-05 0)
(2 -1.47414e-05 0)
(2 -1.03675e-05 0)
(2 -7.02658e-06 -1.22857e-22)
(2 -4.55852e-06 1.22863e-22)
(2 -2.80517e-06 0)
(2 -1.60687e-06 0)
(2 -8.0374e-07 0)
(2 -2.39034e-07 1.22742e-22)
(2.00008 -6.20692e-05 4.27188e-25)
(2.00008 -0.000186018 0)
(2.00008 -0.000309702 0)
(2.00008 -0.000433121 0)
(2.00008 -0.000556013 -3.47671e-23)
(2.00008 -0.000678204 0)
(2.00008 -0.000799447 0)
(2.00008 -0.00091944 -1.27156e-22)
(2.00008 -0.00103773 8.5915e-23)
(2.00007 -0.00115383 -1.97506e-22)
(2.00007 -0.00126707 8.25784e-22)
(2.00007 -0.00137681 -5.44381e-22)
(2.00007 -0.0014825 2.87434e-22)
(2.00006 -0.00158338 0)
(2.00006 -0.00167842 0)
(2.00005 -0.00176668 0)
(2.00005 -0.00184714 0)
(2.00004 -0.00191875 0)
(2.00004 -0.00198048 0)
(2.00003 -0.00203133 0)
(2.00002 -0.00207032 0)
(2.00001 -0.00209666 0)
(2 -0.00210973 0)
(2 -0.00210901 0)
(1.99999 -0.00209428 0)
(1.99998 -0.00206555 -2.71917e-22)
(1.99997 -0.00202313 2.71925e-22)
(1.99996 -0.00196754 -1.44822e-22)
(1.99995 -0.00189968 0)
(1.99995 -0.00182071 0)
(1.99994 -0.00173194 0)
(1.99994 -0.00163493 0)
(1.99993 -0.00153129 0)
(1.99993 -0.00142281 0)
(1.99993 -0.00131125 0)
(1.99993 -0.00119836 -3.70081e-22)
(1.99993 -0.00108582 -6.50842e-24)
(1.99993 -0.000975137 -5.86291e-24)
(1.99993 -0.000867709 -5.23572e-24)
(1.99994 -0.000764738 3.87763e-22)
(1.99994 -0.000667222 3.96477e-22)
(1.99994 -0.000575955 -3.96493e-22)
(1.99995 -0.000491529 0)
(1.99995 -0.000414337 0)
(1.99996 -0.000344594 0)
(1.99996 -0.000282337 0)
(1.99997 -0.000227473 0)
(1.99997 -0.000179791 0)
(1.99998 -0.00013897 0)
(1.99998 -0.000104603 0)
(1.99998 -7.6232e-05 4.14546e-22)
(1.99999 -5.3342e-05 -8.29315e-22)
(1.99999 -3.53963e-05 -8.30265e-22)
(1.99999 -2.18344e-05 8.30307e-22)
(1.99999 -1.2062e-05 -8.30993e-22)
(2 -5.49463e-06 1.24657e-21)
(2 -1.55496e-06 -4.15762e-22)
(2 3.44567e-07 2.07962e-22)
(2 7.91974e-07 -2.07963e-22)
(2 3.60803e-07 5.69102e-27)
(2.00024 -0.000109748 3.10373e-23)
(2.00024 -0.000328951 0)
(2.00024 -0.000547741 0)
(2.00024 -0.000766094 0)
(2.00024 -0.000983572 3.47586e-23)
(2.00024 -0.00119983 -7.47106e-23)
(2.00024 -0.00141451 -4.69079e-24)
(2.00023 -0.00162701 1.20591e-22)
(2.00023 -0.00183661 4.33472e-23)
(2.00023 -0.00204244 1.9527e-22)
(2.00022 -0.0022434 -1.88546e-22)
(2.00021 -0.00243811 -4.28959e-22)
(2.0002 -0.00262578 5.75994e-23)
(2.00019 -0.00280507 0)
(2.00018 -0.00297405 6.76363e-23)
(2.00017 -0.00313111 0)
(2.00015 -0.00327438 0)
(2.00013 -0.00340199 0)
(2.00011 -0.00351206 -3.71006e-22)
(2.00009 -0.00360282 3.70959e-22)
(2.00006 -0.00367242 -2.09793e-22)
(2.00004 -0.00371949 2.09792e-22)
(2.00001 -0.00374286 0)
(1.99998 -0.00374159 -2.47323e-22)
(1.99996 -0.00371525 -1.24643e-23)
(1.99993 -0.00366385 2.59807e-22)
(1.9999 -0.00358792 0)
(1.99988 -0.00348845 0)
(1.99986 -0.003367 0)
(1.99983 -0.00322565 0)
(1.99982 -0.00306679 1.66368e-22)
(1.9998 -0.00289325 -3.28497e-22)
(1.99979 -0.00270794 0)
(1.99978 -0.00251407 0)
(1.99978 -0.00231482 3.63838e-22)
(1.99978 -0.00211335 -3.63875e-22)
(1.99978 -0.00191264 0)
(1.99979 -0.00171542 0)
(1.99979 -0.0015242 0)
(1.9998 -0.00134108 0)
(1.99981 -0.00116786 0)
(1.99983 -0.00100593 0)
(1.99984 -0.000856334 -2.01538e-22)
(1.99986 -0.000719757 0)
(1.99987 -0.00059654 0)
(1.99989 -0.000486733 0)
(1.9999 -0.000390162 -2.05895e-22)
(1.99991 -0.000306424 4.11614e-22)
(1.99993 -0.00023492 0)
(1.99994 -0.000174913 2.07128e-22)
(1.99995 -0.000125579 0)
(1.99996 -8.59852e-05 4.14722e-22)
(1.99997 -5.51865e-05 8.30557e-22)
(1.99998 -3.21678e-05 2.08117e-22)
(1.99998 -1.58531e-05 -8.31026e-22)
(1.99999 -5.22072e-06 4.15703e-22)
(1.99999 7.55049e-07 -4.15904e-22)
(2 3.11773e-06 0)
(2 2.90905e-06 0)
(2 1.13436e-06 -2.07266e-22)
(2.00051 -0.000158443 0)
(2.00051 -0.000474991 0)
(2.00051 -0.000791013 -3.02525e-23)
(2.00051 -0.00110647 0)
(2.0005 -0.00142072 -3.43836e-23)
(2.0005 -0.00173335 3.43784e-23)
(2.0005 -0.00204378 0)
(2.00049 -0.00235123 -1.26366e-22)
(2.00048 -0.00265464 1.22338e-22)
(2.00047 -0.00295282 0)
(2.00046 -0.00324427 -2.06515e-22)
(2.00045 -0.00352674 -6.40799e-22)
(2.00043 -0.00379931 -1.16445e-22)
(2.0004 -0.00405994 0)
(2.00038 -0.00430583 -6.75855e-23)
(2.00035 -0.00453454 0)
(2.00031 -0.0047434 0)
(2.00028 -0.00492968 6.90718e-22)
(2.00023 -0.00509064 -6.90852e-22)
(2.00019 -0.00522338 0)
(2.00014 -0.00532531 -2.09184e-22)
(2.00008 -0.00539448 -1.26498e-23)
(2.00003 -0.00542897 -1.27462e-23)
(1.99997 -0.00542735 2.3459e-22)
(1.99991 -0.00538898 0)
(1.99985 -0.00531388 0)
(1.9998 -0.00520276 0)
(1.99974 -0.00505711 1.48397e-22)
(1.99969 -0.0048792 3.34005e-24)
(1.99965 -0.00467209 1.59603e-22)
(1.99961 -0.00443938 2.31958e-24)
(1.99958 -0.00418525 0)
(1.99956 -0.00391405 0)
(1.99954 -0.00363049 0)
(1.99953 -0.00333931 -3.65505e-22)
(1.99953 -0.00304515 -7.15391e-24)
(1.99954 -0.00275241 -6.46013e-24)
(1.99955 -0.00246513 -5.78059e-24)
(1.99957 -0.00218696 7.75353e-22)
(1.99959 -0.00192092 -3.90284e-22)
(1.99961 -0.00166962 0)
(1.99964 -0.00143508 -2.00782e-22)
(1.99967 -0.00121874 2.0153e-22)
(1.9997 -0.00102156 0)
(1.99973 -0.000843982 0)
(1.99976 -0.000686059 0)
(1.99979 -0.000547455 -2.05701e-22)
(1.99982 -0.000427535 0)
(1.99985 -0.000325406 0)
(1.99987 -0.000239966 -4.14585e-22)
(1.9999 -0.00016998 -8.30166e-22)
(1.99992 -0.000114064 1.66044e-21)
(1.99994 -7.08801e-05 -8.30801e-22)
(1.99995 -3.88884e-05 -1.03923e-21)
(1.99997 -1.65486e-05 8.31441e-22)
(1.99998 -2.40133e-06 0)
(1.99999 5.0511e-06 0)
(2 7.32001e-06 2.08033e-22)
(2 5.89499e-06 0)
(2 2.20624e-06 0)
(2.00088 -0.000207329 0)
(2.00088 -0.000621697 0)
(2.00087 -0.00103546 1.55448e-24)
(2.00087 -0.00144857 0)
(2.00087 -0.00186026 0)
(2.00086 -0.00227 -6.80704e-23)
(2.00086 -0.00267703 -1.14466e-22)
(2.00085 -0.00308042 1.1013e-22)
(2.00083 -0.00347881 0)
(2.00082 -0.00387067 0)
(2.00079 -0.00425414 -2.01468e-22)
(2.00077 -0.00462607 1.26584e-21)
(2.00074 -0.00498549 -1.12208e-22)
(2.0007 -0.00532938 1.17815e-22)
(2.00066 -0.00565431 0)
(2.0006 -0.00595692 0)
(2.00055 -0.00623357 3.18827e-22)
(2.00048 -0.00648079 1.02276e-21)
(2.00041 -0.00669482 -5.08354e-22)
(2.00032 -0.00687107 0)
(2.00024 -0.00700665 0)
(2.00014 -0.00709894 0)
(2.00005 -0.00714498 0)
(1.99995 -0.0071429 -2.47449e-22)
(1.99984 -0.00709171 -1.29857e-23)
(1.99974 -0.00699137 -1.28138e-23)
(1.99965 -0.00684283 2.73328e-22)
(1.99955 -0.00664808 1.46492e-22)
(1.99947 -0.00641018 3.28422e-24)
(1.99939 -0.00613325 -1.54867e-22)
(1.99933 -0.00582222 4.95776e-22)
(1.99928 -0.00548279 -3.31903e-22)
(1.99924 -0.00512091 -3.51306e-22)
(1.99921 -0.00474296 3.51376e-22)
(1.99919 -0.00435538 3.67941e-22)
(1.99919 -0.00396436 -3.68015e-22)
(1.9992 -0.00357586 0)
(1.99922 -0.00319528 0)
(1.99925 -0.00282748 -3.92505e-22)
(1.99929 -0.00247646 3.92544e-22)
(1.99933 -0.00214562 4.00739e-22)
(1.99938 -0.00183757 -2.00028e-22)
(1.99943 -0.00155415 0)
(1.99948 -0.00129648 0)
(1.99953 -0.00106509 0)
(1.99959 -0.000859954 0)
(1.99964 -0.000680515 0)
(1.99969 -0.000525856 0)
(1.99974 -0.000394718 -2.07646e-22)
(1.99978 -0.000285574 -1.03894e-21)
(1.99982 -0.00019673 8.30247e-22)
(1.99986 -0.000126398 8.31419e-22)
(1.99989 -7.27461e-05 -1.24792e-21)
(1.99992 -3.36594e-05 8.32036e-22)
(1.99995 -7.18133e-06 -8.32074e-22)
(1.99997 8.60072e-06 0)
(1.99998 1.56842e-05 0)
(2 1.60413e-05 2.93543e-26)
(2.00001 1.15985e-05 0)
(2.00001 4.20302e-06 0)
(2.00134 -0.000255965 -2.55913e-23)
(2.00134 -0.000767755 0)
(2.00134 -0.00127892 3.17847e-25)
(2.00134 -0.00178941 2.83585e-23)
(2.00133 -0.00229838 0)
(2.00132 -0.00280524 1.8933e-24)
(2.00131 -0.00330906 -7.13193e-23)
(2.0013 -0.00380869 7.1292e-23)
(2.00128 -0.00430262 0)
(2.00125 -0.00478898 0)
(2.00122 -0.00526565 9.15974e-23)
(2.00118 -0.00572852 3.98495e-22)
(2.00113 -0.0061762 -2.23271e-22)
(2.00108 -0.00660511 1.17779e-22)
(2.00101 -0.00701112 0)
(2.00093 -0.00738977 -1.45718e-22)
(2.00084 -0.00773651 1.45751e-22)
(2.00074 -0.00804713 2.04607e-23)
(2.00063 -0.00831628 -7.65543e-22)
(2.0005 -0.00853789 -1.94175e-22)
(2.00037 -0.00870872 1.86995e-22)
(2.00022 -0.00882517 -1.33096e-23)
(2.00007 -0.00888317 2.2071e-22)
(1.99992 -0.00888033 0)
(1.99976 -0.00881515 0)
(1.9996 -0.00868748 0)
(1.99945 -0.00849855 0)
(1.99931 -0.00825088 -1.46407e-22)
(1.99918 -0.0079484 0)
(1.99906 -0.00759638 0)
(1.99896 -0.00720132 5.0134e-22)
(1.99888 -0.00677065 -3.34572e-22)
(1.99882 -0.00631201 0)
(1.99877 -0.00583378 0)
(1.99875 -0.00534419 0)
(1.99875 -0.00485124 0)
(1.99877 -0.00436258 3.84784e-22)
(1.9988 -0.00388504 5.60746e-24)
(1.99884 -0.0034247 -5.8806e-22)
(1.9989 -0.00298666 0)
(1.99897 -0.00257504 0)
(1.99904 -0.00219301 4.06436e-22)
(1.99912 -0.00184274 -6.11077e-22)
(1.99921 -0.00152551 0)
(1.99929 -0.00124179 0)
(1.99937 -0.000991366 0)
(1.99945 -0.000773394 0)
(1.99953 -0.000586604 0)
(1.99961 -0.000429278 6.23682e-22)
(1.99967 -0.000299398 1.66418e-21)
(1.99974 -0.000194741 -1.66389e-21)
(1.99979 -0.000113139 8.32825e-22)
(1.99984 -5.2107e-05 -4.16681e-22)
(1.99989 -9.01935e-06 0)
(1.99993 1.84958e-05 2.08276e-22)
(1.99996 3.28655e-05 0)
(1.99998 3.65928e-05 0)
(2 3.20824e-05 -2.08083e-22)
(2.00001 2.16944e-05 0)
(2.00002 7.68939e-06 2.07324e-22)
(2.0019 -0.00030406 2.27209e-24)
(2.0019 -0.000912315 0)
(2.0019 -0.00151997 0)
(2.00189 -0.00212703 -2.558e-23)
(2.00189 -0.00273263 0)
(2.00188 -0.00333608 3.11375e-23)
(2.00186 -0.00393644 -3.35928e-23)
(2.00184 -0.00453226 6.72508e-23)
(2.00181 -0.00512197 0)
(2.00178 -0.00570334 -1.71869e-22)
(2.00174 -0.00627408 8.02952e-23)
(2.00168 -0.00682961 1.01211e-23)
(2.00162 -0.00736691 4.26019e-22)
(2.00154 -0.00788286 -2.38701e-22)
(2.00144 -0.00837217 -1.05224e-23)
(2.00133 -0.00882935 -8.62989e-23)
(2.00121 -0.00924891 1.52234e-21)
(2.00106 -0.00962571 -5.69028e-22)
(2.0009 -0.00995244 -1.1128e-21)
(2.00072 -0.0102218 1.64431e-21)
(2.00053 -0.01043 1.91185e-22)
(2.00032 -0.0105721 -2.19957e-22)
(2.0001 -0.0106427 -1.3917e-23)
(1.99988 -0.0106387 2.33919e-22)
(1.99965 -0.0105581 0)
(1.99943 -0.0104006 0)
(1.99921 -0.0101676 0)
(1.999 -0.00986221 0)
(1.99881 -0.00948932 1.55022e-22)
(1.99865 -0.00905556 0)
(1.9985 -0.00856921 -4.97873e-22)
(1.99838 -0.00803969 0)
(1.9983 -0.0074767 3.58112e-22)
(1.99824 -0.00689071 -3.58224e-22)
(1.99821 -0.00629214 3.75085e-22)
(1.99821 -0.00569098 7.10563e-24)
(1.99823 -0.00509672 -7.71092e-22)
(1.99828 -0.00451772 3.88763e-22)
(1.99835 -0.00396145 -2.01534e-22)
(1.99843 -0.0034341 3.99148e-22)
(1.99853 -0.00294046 2.03505e-22)
(1.99864 -0.00248423 0)
(1.99876 -0.00206781 2.04649e-22)
(1.99888 -0.00169252 0)
(1.999 -0.00135868 0)
(1.99912 -0.00106578 2.08292e-22)
(1.99923 -0.000812538 -2.08635e-22)
(1.99935 -0.000597246 0)
(1.99945 -0.00041757 2.50388e-21)
(1.99955 -0.000270902 1.66765e-21)
(1.99964 -0.000154618 -3.33584e-21)
(1.99972 -6.59665e-05 -8.34134e-22)
(1.99979 -1.68194e-06 1.87671e-21)
(1.99985 4.12498e-05 -8.34031e-22)
(1.9999 6.56978e-05 -2.08332e-22)
(1.99995 7.46471e-05 0)
(1.99998 7.10611e-05 4.16371e-22)
(2.00001 5.77728e-05 -2.08159e-22)
(2.00003 3.75771e-05 0)
(2.00004 1.31312e-05 -2.85468e-26)
(2.00256 -0.000351385 2.33077e-23)
(2.00256 -0.00105474 0)
(2.00255 -0.00175761 0)
(2.00255 -0.00246004 2.34187e-23)
(2.00254 -0.00316124 -1.66193e-24)
(2.00253 -0.00386049 2.67262e-23)
(2.00251 -0.00455685 -2.84614e-23)
(2.00248 -0.00524872 -1.01526e-22)
(2.00245 -0.00593435 6.78465e-23)
(2.0024 -0.00661125 -1.62477e-22)
(2.00235 -0.00727692 -5.68107e-23)
(2.00228 -0.00792673 2.68595e-22)
(2.00219 -0.00855588 -8.33808e-22)
(2.00208 -0.00916092 -4.67686e-22)
(2.00196 -0.00973633 4.67705e-22)
(2.00181 -0.0102752 -6.7542e-23)
(2.00164 -0.0107713 1.75068e-21)
(2.00144 -0.0112175 -2.77086e-22)
(2.00122 -0.0116053 -3.44103e-22)
(2.00098 -0.0119258 -1.12305e-21)
(2.00072 -0.0121742 1.94907e-22)
(2.00044 -0.0123438 0)
(2.00014 -0.0124281 0)
(1.99983 -0.012423 -2.48206e-22)
(1.99952 -0.0123257 -1.44978e-23)
(1.99921 -0.0121354 2.62824e-22)
(1.99891 -0.0118539 0)
(1.99863 -0.0114849 3.04812e-22)
(1.99837 -0.0110344 -4.59782e-22)
(1.99814 -0.0105106 0)
(1.99794 -0.00992385 1.70288e-22)
(1.99779 -0.00928596 -6.94835e-22)
(1.99767 -0.00860898 -9.82877e-24)
(1.99759 -0.00790593 7.34678e-22)
(1.99755 -0.00718971 7.98559e-24)
(1.99755 -0.00647251 -3.80052e-22)
(1.99759 -0.00576591 0)
(1.99766 -0.00508005 3.98825e-22)
(1.99776 -0.00442376 4.49551e-24)
(1.99788 -0.00380437 -4.03518e-22)
(1.99802 -0.00322732 -4.09199e-22)
(1.99817 -0.00269682 0)
(1.99833 -0.00221528 0)
(1.9985 -0.00178396 -2.08714e-22)
(1.99866 -0.00140288 0)
(1.99883 -0.00107107 -4.17896e-22)
(1.99899 -0.00078669 2.08676e-22)
(1.99914 -0.000547378 -4.19515e-22)
(1.99928 -0.000350133 -2.51184e-21)
(1.99941 -0.000191597 -1.67171e-21)
(1.99953 -6.88233e-05 8.34458e-22)
(1.99964 2.18403e-05 -6.34781e-25)
(1.99974 8.43395e-05 -1.25319e-21)
(1.99982 0.000122092 4.17557e-22)
(1.99989 0.000138566 0)
(1.99995 0.000137291 0)
(2 0.000121658 8.65441e-27)
(2.00003 9.49324e-05 0)
(2.00006 6.03351e-05 0)
(2.00007 2.08895e-05 -2.07308e-22)
(2.00331 -0.000397796 0)
(2.00331 -0.00119452 0)
(2.0033 -0.00199091 1.88052e-23)
(2.0033 -0.00278723 -2.29191e-23)
(2.00329 -0.00358273 0)
(2.00327 -0.00437671 -4.91614e-23)
(2.00325 -0.00516835 2.60219e-23)
(2.00322 -0.00595599 2.83403e-23)
(2.00318 -0.00673763 0)
(2.00312 -0.00751066 0)
(2.00305 -0.0082723 -1.26306e-22)
(2.00296 -0.00901801 7.69104e-23)
(2.00285 -0.00974196 4.07535e-22)
(2.00272 -0.0104387 1.25523e-21)
(2.00256 -0.0111036 0)
(2.00237 -0.011728 -2.52812e-22)
(2.00215 -0.0123051 -1.14448e-21)
(2.00189 -0.0128253 -3.03355e-22)
(2.00161 -0.0132788 -6.85418e-22)
(2.00129 -0.0136549 1.59668e-22)
(2.00095 -0.0139473 -4.07535e-22)
(2.00057 -0.0141477 -1.49923e-23)
(2.00018 -0.0142476 -1.52064e-23)
(1.99978 -0.0142418 2.3331e-22)
(1.99936 -0.0141264 0)
(1.99896 -0.0139002 0)
(1.99856 -0.0135651 0)
(1.99818 -0.0131254 1.51502e-22)
(1.99784 -0.0125885 -1.58669e-22)
(1.99754 -0.0119644 0)
(1.99728 -0.011266 3.41514e-22)
(1.99707 -0.0105079 -3.47036e-22)
(1.99692 -0.00970499 0)
(1.99682 -0.00887332 0)
(1.99677 -0.00802861 5.78365e-22)
(1.99678 -0.00718573 -3.85838e-22)
(1.99684 -0.00635857 -3.99e-22)
(1.99694 -0.0055593 8.03387e-22)
(1.99707 -0.00479811 -4.04354e-22)
(1.99724 -0.0040835 0)
(1.99743 -0.00342156 6.2059e-22)
(1.99763 -0.00281679 -4.14952e-22)
(1.99785 -0.00227158 -2.10051e-22)
(1.99807 -0.00178686 4.1935e-22)
(1.99829 -0.00136214 0)
(1.9985 -0.000995829 2.09616e-22)
(1.99871 -0.000685324 -4.21912e-22)
(1.99891 -0.000427386 4.19444e-22)
(1.9991 -0.000218118 -1.68025e-21)
(1.99927 -5.37607e-05 8.34563e-22)
(1.99942 6.94174e-05 4.16271e-22)
(1.99956 0.000156239 2.09284e-22)
(1.99969 0.000211069 -2.09295e-22)
(1.9998 0.000237846 -2.08784e-22)
(1.99989 0.000240709 4.17172e-22)
(1.99997 0.000223685 -2.04403e-25)
(2.00003 0.000190595 -4.16512e-22)
(2.00007 0.000145124 2.08011e-22)
(2.0001 9.0895e-05 0)
(2.00012 3.12697e-05 0)
(2.00415 -0.000443098 0)
(2.00415 -0.00133106 0)
(2.00415 -0.00221898 -3.42025e-23)
(2.00414 -0.00310732 0)
(2.00413 -0.00399553 0)
(2.00411 -0.004883 3.38773e-24)
(2.00409 -0.00576894 0)
(2.00405 -0.00665185 -2.79651e-23)
(2.004 -0.00752967 -3.09042e-23)
(2.00394 -0.00839943 3.11592e-23)
(2.00385 -0.00925822 -1.55153e-22)
(2.00375 -0.0101016 1.551e-22)
(2.00361 -0.0109232 0)
(2.00345 -0.0117152 -1.23508e-21)
(2.00325 -0.0124743 -1.72526e-22)
(2.00301 -0.0131893 3.37898e-22)
(2.00274 -0.013853 -1.57541e-21)
(2.00242 -0.0144528 6.15963e-22)
(2.00206 -0.0149782 -3.12741e-22)
(2.00165 -0.0154158 0)
(2.00121 -0.0157577 -3.83413e-22)
(2.00074 -0.0159932 0)
(2.00023 -0.0161119 -2.32825e-22)
(1.99971 -0.0161065 2.32889e-22)
(1.99918 -0.015972 -2.65247e-22)
(1.99865 -0.0157066 1.28098e-22)
(1.99814 -0.0153119 0)
(1.99765 -0.0147931 -1.51437e-22)
(1.99721 -0.0141592 4.80664e-22)
(1.99682 -0.0134223 1.68094e-22)
(1.99649 -0.0125983 -3.58858e-22)
(1.99622 -0.0117054 -1.9272e-22)
(1.99603 -0.0107619 3.64603e-22)
(1.99591 -0.00978733 0)
(1.99586 -0.0088009 1.99826e-22)
(1.99588 -0.00782066 6.90604e-24)
(1.99596 -0.00686295 5.82461e-24)
(1.9961 -0.00594233 -4.05752e-22)
(1.99628 -0.00507048 4.14556e-22)
(1.9965 -0.00425706 -6.24471e-22)
(1.99675 -0.00350863 2.11026e-22)
(1.99702 -0.00282984 0)
(1.9973 -0.0022229 2.10128e-22)
(1.99759 -0.00168812 -2.10651e-22)
(1.99787 -0.00122425 0)
(1.99815 -0.00082878 0)
(1.99842 -0.000498109 4.21994e-22)
(1.99867 -0.00022804 -5.7598e-24)
(1.99891 -1.34311e-05 -2.77691e-24)
(1.99912 0.00014976 1.67787e-21)
(1.99932 0.000266529 4.19948e-22)
(1.9995 0.000342753 2.10025e-22)
(1.99965 0.000383177 2.09232e-22)
(1.99979 0.000392429 -3.54673e-25)
(1.99991 0.000375337 -2.08796e-22)
(2 0.00033639 0)
(2.00008 0.000279816 0)
(2.00013 0.000209714 -4.15908e-22)
(2.00017 0.000130069 0)
(2.00019 4.45385e-05 0)
(2.00509 -0.00048708 0)
(2.00508 -0.00146378 0)
(2.00508 -0.00244079 1.23689e-24)
(2.00507 -0.00341897 1.41548e-23)
(2.00506 -0.00439789 0)
(2.00505 -0.00537725 1.98091e-23)
(2.00502 -0.00635635 2.15666e-23)
(2.00498 -0.0073339 2.83134e-24)
(2.00493 -0.00830785 3.28936e-24)
(2.00485 -0.00927524 -3.12518e-23)
(2.00475 -0.0102326 3.12393e-23)
(2.00463 -0.0111757 3.5515e-23)
(2.00447 -0.0120985 -8.05159e-23)
(2.00427 -0.0129905 -7.27225e-22)
(2.00403 -0.0138485 -2.295e-22)
(2.00375 -0.0146608 9.31113e-22)
(2.00341 -0.0154174 8.09084e-22)
(2.00302 -0.0161044 -5.78645e-22)
(2.00258 -0.0167096 6.36617e-22)
(2.00208 -0.0172164 1.04331e-21)
(2.00153 -0.0176154 1.84636e-22)
(2.00093 -0.0178921 -7.11904e-24)
(2.0003 -0.0180341 -2.32265e-22)
(1.99964 -0.0180316 4.81866e-22)
(1.99897 -0.0178778 -2.49627e-22)
(1.9983 -0.0175697 1.37175e-22)
(1.99765 -0.0171086 0)
(1.99703 -0.0165009 1.55692e-22)
(1.99647 -0.0157571 1.71595e-22)
(1.99597 -0.014892 -1.6095e-22)
(1.99556 -0.0139254 1.76732e-22)
(1.99523 -0.0128796 1.81289e-22)
(1.995 -0.0117773 1.91624e-22)
(1.99485 -0.0106424 -3.82939e-22)
(1.99481 -0.0094981 0)
(1.99484 -0.00836619 -4.07474e-22)
(1.99496 -0.00726611 -5.56872e-24)
(1.99514 -0.00621485 4.13415e-22)
(1.99539 -0.00522562 -4.2144e-22)
(1.99568 -0.00430933 -5.96319e-24)
(1.996 -0.0034729 -1.23054e-24)
(1.99635 -0.00272081 -6.4184e-22)
(1.99671 -0.00205479 4.27086e-22)
(1.99707 -0.00147421 -2.15007e-22)
(1.99743 -0.000976718 -2.1475e-22)
(1.99778 -0.000558547 -8.53007e-22)
(1.99811 -0.000214726 2.55396e-21)
(1.99843 6.00333e-05 7.27197e-24)
(1.99872 0.000271877 3.39203e-21)
(1.99899 0.00042583 1.2691e-21)
(1.99923 0.000528508 -2.11629e-22)
(1.99945 0.000586426 -4.20479e-22)
(1.99964 0.000604876 -2.09407e-22)
(1.99981 0.000589348 2.09396e-22)
(1.99995 0.000545301 -2.0868e-22)
(2.00006 0.000477635 -2.08185e-22)
(2.00015 0.000391005 2.08188e-22)
(2.00022 0.000289872 1.51531e-25)
(2.00027 0.000178543 2.07739e-22)
(2.00029 6.0922e-05 0)
(2.0061 -0.000529517 0)
(2.00611 -0.001592 0)
(2.0061 -0.00265528 0)
(2.0061 -0.00372063 -1.14761e-23)
(2.00609 -0.00478792 1.14704e-23)
(2.00607 -0.00585724 -1.51571e-23)
(2.00604 -0.00692803 1.51496e-23)
(2.006 -0.00799933 0)
(2.00595 -0.00906923 0)
(2.00586 -0.0101349 2.7305e-23)
(2.00576 -0.0111928 -5.86984e-23)
(2.00561 -0.012238 -4.0902e-24)
(2.00543 -0.0132654 1.71876e-22)
(2.0052 -0.0142634 5.62815e-22)
(2.00492 -0.0152255 4.1911e-22)
(2.00458 -0.0161429 -4.19681e-22)
(2.00418 -0.0170009 -5.04849e-22)
(2.00371 -0.0177848 3.30779e-22)
(2.00317 -0.0184801 -3.01991e-22)
(2.00257 -0.0190668 -3.63206e-23)
(2.00189 -0.0195322 -7.8189e-22)
(2.00116 -0.0198585 1.60699e-21)
(2.00038 -0.0200305 -2.13389e-22)
(1.99956 -0.020035 0)
(1.99872 -0.0198625 0)
(1.99788 -0.0195083 0)
(1.99707 -0.0189735 0)
(1.9963 -0.0182649 -1.55635e-22)
(1.9956 -0.0173956 1.75755e-22)
(1.99499 -0.0163836 5.96293e-24)
(1.99447 -0.0152533 0)
(1.99407 -0.0140325 1.90732e-22)
(1.99379 -0.0127491 -1.89723e-22)
(1.99363 -0.0114325 2.01241e-22)
(1.99358 -0.0101107 4.09804e-22)
(1.99365 -0.00881001 -6.19486e-22)
(1.99381 -0.00755334 -4.22058e-22)
(1.99406 -0.00636048 2.07586e-22)
(1.99438 -0.00524637 0)
(1.99475 -0.00422283 2.13467e-22)
(1.99516 -0.0032971 -3.52976e-24)
(1.9956 -0.00247314 -3.16726e-24)
(1.99606 -0.00175161 -2.17969e-22)
(1.99651 -0.00113066 -4.34596e-22)
(1.99696 -0.00060639 6.46975e-22)
(1.99739 -0.000173349 -1.7188e-21)
(1.9978 0.000175309 1.71683e-21)
(1.99819 0.000445618 -3.40686e-21)
(1.99854 0.000645423 3.83767e-21)
(1.99887 0.000781192 -1.27171e-21)
(1.99916 0.000860969 0)
(1.99942 0.000891856 2.10187e-22)
(1.99965 0.000879961 -2.10169e-22)
(1.99985 0.00083171 0)
(2.00002 0.000753065 0)
(2.00016 0.00064934 0)
(2.00026 0.000525594 0)
(2.00035 0.000386583 0)
(2.0004 0.000236895 0)
(2.00043 8.06081e-05 0)
(2.00721 -0.000570153 0)
(2.00721 -0.00171496 0)
(2.00721 -0.00286116 0)
(2.00721 -0.00401059 0)
(2.0072 -0.00516338 0)
(2.00719 -0.00632027 1.07836e-23)
(2.00716 -0.0074809 -2.397e-23)
(2.00712 -0.00864473 1.31864e-23)
(2.00706 -0.00981023 -1.92458e-23)
(2.00698 -0.0109747 -3.68465e-24)
(2.00686 -0.0121347 2.29109e-23)
(2.0067 -0.0132851 0)
(2.0065 -0.0144209 -7.46093e-23)
(2.00624 -0.015531 -2.66013e-22)
(2.00592 -0.0166054 1.80225e-21)
(2.00552 -0.0176362 -7.75894e-22)
(2.00505 -0.0186056 4.67573e-22)
(2.0045 -0.0194981 -3.51501e-24)
(2.00386 -0.0202963 3.7394e-22)
(2.00314 -0.0209766 -6.90624e-22)
(2.00232 -0.021521 -1.44115e-21)
(2.00143 -0.0219086 -6.08533e-24)
(2.00048 -0.0221204 0)
(1.99947 -0.0221383 -2.50463e-22)
(1.99844 -0.0219491 -1.98595e-23)
(1.99741 -0.021546 2.70674e-22)
(1.9964 -0.0209289 0)
(1.99545 -0.0201057 0)
(1.99459 -0.019092 -1.61042e-22)
(1.99383 -0.0179098 -3.47924e-22)
(1.99321 -0.0165898 3.77246e-22)
(1.99272 -0.0151666 -1.87876e-22)
(1.99239 -0.0136747 0)
(1.99221 -0.0121501 -6.13676e-22)
(1.99218 -0.0106271 2.01068e-22)
(1.99228 -0.00913707 4.21521e-22)
(1.99251 -0.00770719 -4.27358e-22)
(1.99284 -0.00636001 2.14804e-22)
(1.99325 -0.00511258 2.16983e-22)
(1.99373 -0.00397747 -6.60119e-22)
(1.99425 -0.00296162 -3.91754e-24)
(1.9948 -0.00206816 -3.48382e-24)
(1.99536 -0.00129615 2.18106e-22)
(1.99592 -0.000641816 -2.63473e-24)
(1.99647 -9.91515e-05 0)
(1.997 0.000339202 1.16037e-23)
(1.9975 0.000682354 1.73029e-21)
(1.99796 0.000937521 -3.4468e-21)
(1.99838 0.00111479 2.28107e-22)
(1.99877 0.00122222 -2.13232e-22)
(1.99912 0.00126907 0)
(1.99943 0.00126321 2.10373e-22)
(1.9997 0.00121184 -2.10356e-22)
(1.99993 0.00112222 0)
(2.00013 0.00100073 0)
(2.00029 0.000853081 0)
(2.00042 0.000684713 2.07389e-22)
(2.00051 0.000500622 -2.07392e-22)
(2.00057 0.000305578 0)
(2.00061 0.000103743 0)
(2.00839 -0.000608705 0)
(2.0084 -0.00183171 0)
(2.0084 -0.00305692 0)
(2.0084 -0.00428671 0)
(2.0084 -0.00552166 0)
(2.00839 -0.00676321 -6.01553e-24)
(2.00837 -0.00801135 1.441e-23)
(2.00833 -0.0092661 2.79755e-24)
(2.00828 -0.0105264 3.22724e-24)
(2.00819 -0.01179 2.17612e-23)
(2.00807 -0.0130537 -5.83724e-23)
(2.0079 -0.0143123 -4.64781e-24)
(2.00768 -0.0155609 2.68485e-23)
(2.00739 -0.0167892 -7.67936e-23)
(2.00703 -0.0179854 -4.89882e-22)
(2.00658 -0.0191394 -5.5512e-22)
(2.00605 -0.0202326 -4.73667e-23)
(2.0054 -0.021248 2.37043e-23)
(2.00466 -0.0221648 1.93134e-22)
(2.0038 -0.0229556 -9.83565e-22)
(2.00283 -0.023596 -1.02067e-21)
(2.00176 -0.0240613 -3.9878e-22)
(2.00061 -0.0243266 0)
(1.99939 -0.0243675 -2.50833e-22)
(1.99813 -0.0241662 -2.15857e-23)
(1.99686 -0.023712 2.72841e-22)
(1.99563 -0.0230034 1.53996e-22)
(1.99446 -0.0220489 0)
(1.99341 -0.0208676 3.50464e-22)
(1.99248 -0.0194868 -5.55212e-22)
(1.99173 -0.0179448 1.86408e-22)
(1.99115 -0.0162851 -4.02648e-22)
(1.99077 -0.0145506 6.09633e-22)
(1.99058 -0.0127861 9.70262e-24)
(1.99057 -0.011033 -2.13487e-22)
(1.99073 -0.00932915 2.15344e-22)
(1.99103 -0.00770638 0)
(1.99146 -0.0061906 0)
(1.992 -0.00480066 -2.26769e-22)
(1.9926 -0.00354977 4.43422e-22)
(1.99326 -0.00244403 2.22183e-22)
(1.99394 -0.00148496 -3.79889e-24)
(1.99463 -0.000669175 -4.49108e-22)
(1.99532 9.4922e-06 -6.63941e-22)
(1.99598 0.000559948 2.65565e-21)
(1.99661 0.000992149 -1.74322e-21)
(1.99721 0.00131723 8.66756e-22)
(1.99776 0.00154464 2.57984e-21)
(1.99826 0.00168741 -2.99858e-21)
(1.99871 0.00175486 -4.27945e-22)
(1.99912 0.00175743 0)
(1.99948 0.00170418 -2.10464e-22)
(1.99979 0.00160341 2.10459e-22)
(2.00006 0.00146307 0)
(2.00029 0.00128992 2.07968e-22)
(2.00047 0.00109006 -2.07965e-22)
(2.00062 0.000869234 0)
(2.00072 0.000632558 0)
(2.0008 0.000384901 0)
(2.00084 0.000130431 0)
(2.00965 -0.000644859 0)
(2.00966 -0.00194135 0)
(2.00967 -0.003241 0)
(2.00967 -0.00454679 0)
(2.00968 -0.0058599 0)
(2.00968 -0.00718254 0)
(2.00967 -0.00851518 -3.19291e-24)
(2.00964 -0.00985864 -2.75311e-24)
(2.00959 -0.0112125 -1.23165e-23)
(2.0095 -0.012575 5.47446e-24)
(2.00938 -0.0139437 -2.10416e-23)
(2.00921 -0.0153135 3.3788e-23)
(2.00898 -0.0166797 -5.34997e-23)
(2.00867 -0.0180328 -1.15892e-23)
(2.00827 -0.01936 6.31506e-22)
(2.00777 -0.0206491 -1.83892e-22)
(2.00717 -0.0218815 -4.26872e-22)
(2.00644 -0.0230373 -9.82434e-23)
(2.00557 -0.0240921 -3.63594e-23)
(2.00457 -0.0250148 8.75504e-22)
(2.00344 -0.0257734 9.90313e-23)
(2.00217 -0.0263384 -2.04524e-22)
(2.00079 -0.0266761 3.11923e-22)
(1.99932 -0.0267546 1.19369e-22)
(1.99779 -0.0265489 0)
(1.99625 -0.026043 1.44481e-22)
(1.99474 -0.0252328 -1.53922e-22)
(1.99332 -0.0241272 3.44259e-22)
(1.99202 -0.0227498 -5.1243e-22)
(1.99091 -0.0211346 5.69282e-22)
(1.99 -0.0193301 -1.92367e-22)
(1.98932 -0.0173914 4.16549e-22)
(1.98889 -0.0153723 -2.08705e-22)
(1.98869 -0.0133285 6.61028e-22)
(1.98872 -0.0113106 7.50035e-24)
(1.98896 -0.00936366 -6.76978e-22)
(1.98937 -0.00752503 -4.56774e-22)
(1.98993 -0.00582447 4.57003e-22)
(1.99061 -0.00428254 0)
(1.99137 -0.00291223 2.27095e-22)
(1.99219 -0.00171827 -2.31436e-22)
(1.99303 -0.00069943 -2.34047e-22)
(1.99387 0.000150724 -7.01231e-24)
(1.9947 0.000841799 0)
(1.99549 0.00138686 1.80992e-21)
(1.99625 0.00179849 -3.54857e-21)
(1.99695 0.00209051 -1.32144e-21)
(1.99759 0.00227583 -4.3601e-22)
(1.99818 0.0023703 2.14636e-22)
(1.9987 0.00238434 -1.49715e-21)
(1.99917 0.00233004 6.37901e-22)
(1.99958 0.00221783 -2.1168e-22)
(1.99994 0.0020569 0)
(2.00025 0.00185583 0)
(2.0005 0.00162171 0)
(2.00071 0.001361 -2.06875e-22)
(2.00087 0.0010796 5.22652e-25)
(2.00099 0.00078267 2.06395e-22)
(2.00108 0.000475023 0)
(2.00112 0.000160719 0)
(2.01098 -0.000678196 1.05865e-23)
(2.01099 -0.00204271 -1.06148e-23)
(2.01101 -0.00341156 0)
(2.01102 -0.00478817 8.11968e-24)
(2.01103 -0.00617466 -8.11437e-24)
(2.01105 -0.00757402 0)
(2.01105 -0.0089875 -2.4253e-24)
(2.01103 -0.0104167 2.68537e-24)
(2.01099 -0.0118621 -3.64532e-24)
(2.01092 -0.0133228 -1.05625e-23)
(2.01081 -0.0147972 2.87392e-24)
(2.01064 -0.016281 1.10546e-23)
(2.0104 -0.0177696 0)
(2.01007 -0.0192544 0)
(2.00965 -0.0207231 -8.8458e-23)
(2.00911 -0.0221606 -2.2824e-22)
(2.00844 -0.0235499 3.49473e-22)
(2.00762 -0.0248666 -3.33602e-22)
(2.00664 -0.0260836 -3.82433e-23)
(2.00549 -0.0271651 5.39631e-22)
(2.00416 -0.0280704 2.38244e-21)
(2.00267 -0.0287643 -4.00209e-22)
(2.00103 -0.0292009 2.789e-22)
(1.99927 -0.0293382 1.06082e-22)
(1.99742 -0.0291411 0)
(1.99555 -0.0285853 -1.44378e-22)
(1.99371 -0.0276625 0)
(1.99198 -0.0263822 1.77078e-22)
(1.99041 -0.0247733 1.12903e-23)
(1.98906 -0.0228786 -7.74706e-22)
(1.98798 -0.0207605 1.25054e-21)
(1.98719 -0.0184892 1.52941e-23)
(1.9867 -0.0161332 -4.33418e-22)
(1.98651 -0.0137617 8.91713e-24)
(1.9866 -0.0114367 -2.28648e-22)
(1.98694 -0.00921201 6.93802e-22)
(1.98749 -0.00713131 0)
(1.98822 -0.00522808 0)
(1.98908 -0.00352432 -4.71724e-22)
(1.99004 -0.00203218 2.18138e-24)
(1.99105 -0.000753841 9.37631e-22)
(1.99207 0.000315718 -8.76948e-24)
(1.99309 0.00118726 -7.37732e-24)
(1.99408 0.00187533 1.83114e-21)
(1.99503 0.0023982 -1.08111e-20)
(1.99591 0.0027712 4.43286e-21)
(1.99673 0.00301249 8.71059e-22)
(1.99748 0.00313933 0)
(1.99815 0.00316951 0)
(1.99876 0.003115 8.55926e-22)
(1.99929 0.00299006 2.11725e-22)
(1.99975 0.00280628 -2.11694e-22)
(2.00016 0.00257367 0)
(2.0005 0.00230129 -2.07864e-22)
(2.00078 0.00199653 2.07863e-22)
(2.00101 0.0016661 0)
(2.0012 0.00131589 0)
(2.00133 0.000950923 2.05243e-22)
(2.00142 0.000575888 -2.05278e-22)
(2.00147 0.000194582 0)
(2.01237 -0.000708394 0)
(2.01239 -0.00213468 0)
(2.01241 -0.00356649 -1.50459e-23)
(2.01244 -0.00500804 1.50356e-23)
(2.01246 -0.00646229 0)
(2.01249 -0.00793308 0)
(2.01251 -0.0094228 8.45503e-24)
(2.01251 -0.0109339 -2.59002e-24)
(2.01249 -0.0124679 -8.68476e-24)
(2.01244 -0.0140253 2.82776e-24)