/*--------------------------------*- C++ -*----------------------------------*\
  =========                 |
  \\      /  F ield         | OpenFOAM: The Open Source CFD Toolbox
   \\    /   O peration     | Website:  https://openfoam.org
    \\  /    A nd           | Version:  12
     \\/     M anipulation  |
\*---------------------------------------------------------------------------*/
FoamFile
{
    format      ascii;
    class       volScalarField;
    location    "440";
    object      k;
}
// * * * * * * * * * * * * * * * * * * * * * * * * * * * * * * * * * * * * * //

dimensions      [0 2 -2 0 0 0 0];

internalField   nonuniform List<scalar> 
16227
(
0.00914646
0.00914648
0.00914647
0.00914651
0.0091465
0.00914654
0.00914653
0.00914652
0.00914651
0.00914653
0.00914657
0.00914659
0.00914665
0.00914665
0.00914665
0.00914665
0.00914665
0.00914665
0.00914665
0.00914665
0.00914665
0.00914665
0.00914665
0.00914665
0.00914665
0.00914665
0.00914665
0.00914666
0.00914667
0.00914664
0.00914665
0.00914665
0.00914665
0.00914665
0.00914665
0.00914665
0.00914665
0.00914665
0.00914665
0.00914665
0.00914665
0.00914665
0.00914665
0.00914665
0.00914665
0.00914665
0.00914665
0.00914663
0.00914662
0.00914662
0.00914662
0.00914661
0.00914654
0.00914654
0.00914649
0.00914649
0.00914651
0.00914649
0.00914647
0.00914646
0.00848122
0.00848124
0.00848124
0.00848127
0.00848128
0.00848131
0.0084813
0.00848127
0.00848128
0.0084813
0.00848135
0.00848137
0.00848151
0.00848157
0.00848159
0.00848158
0.00848158
0.00848158
0.00848158
0.00848158
0.0084816
0.00848161
0.00848161
0.00848161
0.00848161
0.00848161
0.0084816
0.0084816
0.00848158
0.00848153
0.00848158
0.0084816
0.0084816
0.0084816
0.0084816
0.00848159
0.00848158
0.00848158
0.00848158
0.00848158
0.00848158
0.00848158
0.00848158
0.00848157
0.00848157
0.00848155
0.00848155
0.00848156
0.00848156
0.00848155
0.00848152
0.00848146
0.00848135
0.00848133
0.0084813
0.00848127
0.00848131
0.00848123
0.00848125
0.00848122
0.00790076
0.00790078
0.00790078
0.0079008
0.00790079
0.00790088
0.00790083
0.00790082
0.00790083
0.00790084
0.00790088
0.0079009
0.00790115
0.00790121
0.00790122
0.00790123
0.00790123
0.00790123
0.00790125
0.00790119
0.00790123
0.00790124
0.00790123
0.00790123
0.00790122
0.00790122
0.00790122
0.00790122
0.00790121
0.00790114
0.0079012
0.00790121
0.00790121
0.00790121
0.00790122
0.00790122
0.00790122
0.00790121
0.0079012
0.0079012
0.00790121
0.00790121
0.0079012
0.00790119
0.0079012
0.0079012
0.00790119
0.00790119
0.00790119
0.00790116
0.00790112
0.00790093
0.00790085
0.00790084
0.00790082
0.00790082
0.00790085
0.00790075
0.00790077
0.00790074
0.00739027
0.00739028
0.00739029
0.0073903
0.00739031
0.00739037
0.00739037
0.00739034
0.00739034
0.00739034
0.00739038
0.00739044
0.0073907
0.00739078
0.00739079
0.0073908
0.00739081
0.00739082
0.00739075
0.00739062
0.00739073
0.00739076
0.00739075
0.00739075
0.00739075
0.00739075
0.00739074
0.00739073
0.0073907
0.00739061
0.00739069
0.00739071
0.0073907
0.00739071
0.00739071
0.00739072
0.00739072
0.00739072
0.00739073
0.00739073
0.00739074
0.00739074
0.00739073
0.00739074
0.00739074
0.00739073
0.00739074
0.00739074
0.00739074
0.00739072
0.0073906
0.0073904
0.0073903
0.00739033
0.00739032
0.00739034
0.00739032
0.00739024
0.00739025
0.00739023
0.00693815
0.00693817
0.00693817
0.00693819
0.00693819
0.00693825
0.00693828
0.00693821
0.00693822
0.00693822
0.00693826
0.00693831
0.00693856
0.00693868
0.0069387
0.00693869
0.00693869
0.00693866
0.00693844
0.00693836
0.00693854
0.0069386
0.00693859
0.00693857
0.00693855
0.00693853
0.00693852
0.00693851
0.00693848
0.00693838
0.00693846
0.00693849
0.0069385
0.0069385
0.0069385
0.00693851
0.00693852
0.00693854
0.00693855
0.00693856
0.00693857
0.00693859
0.00693859
0.0069386
0.0069386
0.00693862
0.00693862
0.00693862
0.00693862
0.00693854
0.0069383
0.00693819
0.00693812
0.00693815
0.00693817
0.00693822
0.00693816
0.00693808
0.00693808
0.00693807
0.00653521
0.00653523
0.00653522
0.00653524
0.00653524
0.00653528
0.00653532
0.00653527
0.00653524
0.00653523
0.00653524
0.00653527
0.00653538
0.00653566
0.00653571
0.00653572
0.0065357
0.00653558
0.00653533
0.00653528
0.00653548
0.00653553
0.0065355
0.00653546
0.00653544
0.00653542
0.0065354
0.00653537
0.00653533
0.00653523
0.00653531
0.00653534
0.00653535
0.00653536
0.00653538
0.0065354
0.00653542
0.00653544
0.00653546
0.00653548
0.00653551
0.00653553
0.00653555
0.00653557
0.00653558
0.0065356
0.00653561
0.00653562
0.00653562
0.00653548
0.00653525
0.00653514
0.0065351
0.00653515
0.0065352
0.00653519
0.00653514
0.00653507
0.00653508
0.00653506
0.00617403
0.00617405
0.00617404
0.00617405
0.00617405
0.00617408
0.00617412
0.0061741
0.00617405
0.00617403
0.00617401
0.006174
0.00617409
0.00617434
0.00617446
0.00617446
0.00617441
0.00617409
0.00617395
0.00617393
0.00617413
0.00617415
0.0061741
0.00617406
0.00617402
0.00617398
0.00617394
0.00617392
0.00617387
0.00617375
0.00617385
0.00617388
0.00617389
0.00617391
0.00617394
0.00617397
0.006174
0.00617405
0.00617408
0.00617413
0.00617416
0.0061742
0.00617423
0.00617426
0.0061743
0.00617432
0.00617433
0.00617436
0.00617429
0.00617403
0.00617391
0.00617383
0.00617384
0.00617391
0.00617393
0.00617392
0.00617387
0.00617382
0.00617383
0.00617381
0.00584862
0.00584862
0.00584862
0.00584863
0.00584861
0.00584864
0.00584867
0.00584866
0.0058486
0.00584855
0.00584852
0.00584846
0.00584849
0.0058486
0.00584887
0.00584892
0.00584883
0.00584846
0.00584832
0.00584828
0.00584848
0.00584848
0.00584841
0.00584834
0.00584828
0.00584823
0.00584818
0.00584814
0.00584808
0.00584796
0.00584806
0.0058481
0.00584812
0.00584815
0.00584819
0.00584824
0.00584829
0.00584835
0.00584841
0.00584847
0.00584854
0.00584858
0.00584863
0.00584869
0.00584873
0.00584876
0.0058488
0.00584881
0.00584869
0.00584845
0.00584834
0.0058483
0.00584836
0.0058484
0.00584841
0.0058484
0.00584837
0.00584832
0.00584833
0.00584831
0.00555403
0.00555403
0.00555404
0.00555403
0.00555402
0.00555403
0.00555405
0.00555403
0.005554
0.00555392
0.00555386
0.00555377
0.00555376
0.00555383
0.00555413
0.00555419
0.005554
0.00555364
0.0055535
0.00555343
0.0055536
0.00555358
0.00555348
0.00555339
0.00555331
0.00555323
0.00555317
0.00555312
0.00555305
0.00555292
0.00555302
0.00555307
0.00555311
0.00555316
0.00555321
0.00555328
0.00555335
0.00555344
0.00555352
0.0055536
0.00555368
0.00555377
0.00555384
0.0055539
0.00555396
0.00555403
0.00555406
0.00555402
0.00555377
0.00555365
0.00555359
0.00555364
0.00555366
0.00555371
0.00555371
0.00555372
0.00555369
0.00555364
0.00555365
0.00555365
0.00528621
0.00528622
0.0052862
0.0052862
0.00528618
0.00528618
0.0052862
0.00528615
0.00528611
0.00528606
0.00528596
0.00528585
0.00528582
0.00528587
0.0052861
0.00528614
0.00528577
0.00528552
0.00528538
0.00528531
0.00528544
0.00528539
0.00528526
0.00528514
0.00528503
0.00528493
0.00528485
0.00528478
0.00528471
0.00528458
0.00528468
0.00528473
0.00528478
0.00528485
0.00528493
0.00528502
0.00528512
0.00528523
0.00528536
0.00528546
0.00528557
0.00528567
0.00528578
0.00528587
0.00528595
0.00528603
0.00528607
0.005286
0.00528575
0.00528566
0.00528566
0.00528569
0.00528572
0.00528577
0.00528578
0.00528579
0.00528576
0.00528573
0.00528573
0.00528573
0.00504175
0.00504176
0.00504175
0.00504173
0.00504172
0.00504171
0.0050417
0.00504165
0.00504159
0.00504152
0.00504144
0.00504129
0.00504118
0.00504117
0.00504122
0.00504136
0.005041
0.00504077
0.00504061
0.0050405
0.00504054
0.0050405
0.00504035
0.00504019
0.00504005
0.00503993
0.00503982
0.00503974
0.00503966
0.00503952
0.00503963
0.0050397
0.00503976
0.00503985
0.00503996
0.00504008
0.00504022
0.00504036
0.00504051
0.00504066
0.00504079
0.00504093
0.00504106
0.00504117
0.00504128
0.00504136
0.00504135
0.00504124
0.0050411
0.00504105
0.00504107
0.00504111
0.00504114
0.0050412
0.00504122
0.00504123
0.0050412
0.00504117
0.00504118
0.00504118
0.00481781
0.00481781
0.0048178
0.00481778
0.00481775
0.00481774
0.00481771
0.00481766
0.00481758
0.00481749
0.00481739
0.00481724
0.00481709
0.004817
0.00481699
0.00481707
0.00481677
0.00481652
0.0048163
0.00481614
0.00481601
0.00481603
0.00481589
0.0048157
0.00481552
0.00481537
0.00481524
0.00481514
0.00481505
0.00481491
0.00481503
0.0048151
0.00481519
0.0048153
0.00481544
0.0048156
0.00481577
0.00481595
0.00481613
0.00481632
0.0048165
0.00481667
0.00481683
0.00481698
0.0048171
0.00481716
0.00481707
0.00481704
0.00481699
0.00481696
0.00481699
0.00481704
0.00481708
0.00481714
0.00481716
0.00481717
0.00481715
0.00481712
0.00481713
0.00481713
0.00461196
0.00461196
0.00461194
0.00461192
0.00461189
0.00461186
0.00461182
0.00461176
0.00461166
0.00461156
0.00461144
0.00461127
0.0046111
0.00461092
0.0046108
0.0046107
0.00461055
0.00461034
0.00461008
0.00460985
0.00460964
0.00460965
0.00460948
0.00460925
0.00460903
0.00460884
0.00460869
0.00460857
0.00460847
0.00460833
0.00460845
0.00460854
0.00460865
0.0046088
0.00460897
0.00460918
0.00460938
0.00460961
0.00460984
0.00461007
0.00461029
0.0046105
0.00461069
0.00461087
0.004611
0.00461105
0.00461099
0.00461102
0.00461097
0.00461096
0.00461101
0.00461107
0.00461112
0.00461117
0.0046112
0.00461121
0.0046112
0.00461118
0.00461119
0.00461119
0.00442216
0.00442217
0.00442214
0.00442211
0.00442207
0.00442203
0.00442198
0.0044219
0.00442179
0.00442167
0.00442152
0.00442134
0.00442114
0.00442094
0.00442072
0.00442056
0.00442043
0.00442018
0.00441988
0.0044196
0.00441933
0.0044193
0.00441907
0.00441879
0.00441853
0.0044183
0.00441812
0.00441798
0.00441786
0.00441772
0.00441785
0.00441797
0.00441811
0.00441829
0.0044185
0.00441875
0.00441902
0.00441929
0.00441957
0.00441985
0.00442011
0.00442037
0.00442059
0.00442079
0.00442088
0.00442091
0.00442097
0.00442102
0.00442101
0.00442103
0.00442108
0.00442114
0.0044212
0.00442125
0.00442129
0.00442131
0.00442129
0.00442128
0.00442129
0.00442128
0.00424665
0.00424665
0.00424663
0.00424659
0.00424654
0.00424649
0.00424643
0.00424633
0.00424622
0.00424607
0.0042459
0.00424569
0.00424547
0.00424523
0.00424498
0.00424478
0.0042446
0.0042443
0.00424395
0.00424361
0.00424328
0.00424318
0.0042429
0.00424257
0.00424226
0.00424199
0.00424177
0.0042416
0.00424147
0.00424133
0.00424148
0.00424161
0.00424179
0.00424201
0.00424227
0.00424257
0.00424289
0.00424323
0.00424357
0.0042439
0.00424421
0.00424451
0.00424478
0.00424496
0.004245
0.00424512
0.00424522
0.00424531
0.00424534
0.00424537
0.00424545
0.00424551
0.00424557
0.00424563
0.00424566
0.00424568
0.00424567
0.00424567
0.00424567
0.00424567
0.00408391
0.00408391
0.00408388
0.00408384
0.00408378
0.00408373
0.00408365
0.00408354
0.00408341
0.00408324
0.00408305
0.00408282
0.00408257
0.00408229
0.00408201
0.00408177
0.00408153
0.00408118
0.00408077
0.00408037
0.00407999
0.00407976
0.00407946
0.00407907
0.0040787
0.00407839
0.00407813
0.00407793
0.00407779
0.00407765
0.0040778
0.00407797
0.00407818
0.00407845
0.00407877
0.00407914
0.00407952
0.00407993
0.00408032
0.00408071
0.00408108
0.00408143
0.00408173
0.00408191
0.00408199
0.00408214
0.00408228
0.00408235
0.00408241
0.00408249
0.00408258
0.00408266
0.00408272
0.00408278
0.00408282
0.00408283
0.00408283
0.00408282
0.00408283
0.00408282
0.00393264
0.00393263
0.00393261
0.00393256
0.0039325
0.00393243
0.00393234
0.00393221
0.00393206
0.00393188
0.00393167
0.00393141
0.00393113
0.00393082
0.0039305
0.0039302
0.00392992
0.00392951
0.00392905
0.00392856
0.00392809
0.00392767
0.0039274
0.00392699
0.00392657
0.00392619
0.00392588
0.00392566
0.0039255
0.00392536
0.00392552
0.00392572
0.00392598
0.00392631
0.0039267
0.00392713
0.0039276
0.00392806
0.00392853
0.00392898
0.00392942
0.0039298
0.00393007
0.00393026
0.00393045
0.00393066
0.00393083
0.00393091
0.00393099
0.0039311
0.00393119
0.00393127
0.00393134
0.0039314
0.00393143
0.00393145
0.00393145
0.00393144
0.00393145
0.00393144
0.00379169
0.00379168
0.00379165
0.0037916
0.00379153
0.00379146
0.00379135
0.00379121
0.00379105
0.00379085
0.00379061
0.00379033
0.00379002
0.00378968
0.00378931
0.00378897
0.00378863
0.00378818
0.00378764
0.00378707
0.00378652
0.00378598
0.00378566
0.0037852
0.0037847
0.00378426
0.0037839
0.00378363
0.00378345
0.00378332
0.0037835
0.00378374
0.00378405
0.00378445
0.00378491
0.00378543
0.00378597
0.00378652
0.00378707
0.00378759
0.00378808
0.00378848
0.0037887
0.00378899
0.00378927
0.00378952
0.0037897
0.00378981
0.00378991
0.00379003
0.00379014
0.00379022
0.00379028
0.00379034
0.00379038
0.00379039
0.00379039
0.00379038
0.00379038
0.00379039
0.00366007
0.00366006
0.00366003
0.00365997
0.0036599
0.00365981
0.00365971
0.00365955
0.00365937
0.00365915
0.0036589
0.00365859
0.00365824
0.00365787
0.00365746
0.00365707
0.00365667
0.00365615
0.00365556
0.00365492
0.00365428
0.00365366
0.0036532
0.00365268
0.00365211
0.0036516
0.00365117
0.00365087
0.00365067
0.00365053
0.00365074
0.00365102
0.0036514
0.00365187
0.00365242
0.00365304
0.00365367
0.00365431
0.00365494
0.00365553
0.00365608
0.00365651
0.00365679
0.00365713
0.00365746
0.00365773
0.0036579
0.00365804
0.00365818
0.00365832
0.00365842
0.0036585
0.00365856
0.00365862
0.00365865
0.00365867
0.00365866
0.00365865
0.00365865
0.00365866
0.00353691
0.0035369
0.00353686
0.0035368
0.00353672
0.00353663
0.00353652
0.00353635
0.00353616
0.00353592
0.00353565
0.00353531
0.00353494
0.00353453
0.00353409
0.00353362
0.00353316
0.00353259
0.00353194
0.00353123
0.00353048
0.00352976
0.00352908
0.00352856
0.00352794
0.00352734
0.00352685
0.00352649
0.00352627
0.00352614
0.00352638
0.00352671
0.00352716
0.00352773
0.00352838
0.00352909
0.00352983
0.00353057
0.00353126
0.00353189
0.00353247
0.00353294
0.00353336
0.00353377
0.00353414
0.00353442
0.0035346
0.00353476
0.00353493
0.00353507
0.00353517
0.00353525
0.00353531
0.00353536
0.00353539
0.0035354
0.00353539
0.00353538
0.00353538
0.00353538
0.00342144
0.00342143
0.00342139
0.00342133
0.00342124
0.00342114
0.00342102
0.00342084
0.00342064
0.00342039
0.0034201
0.00341974
0.00341935
0.0034189
0.0034184
0.00341786
0.00341732
0.00341673
0.00341602
0.00341523
0.0034144
0.00341356
0.00341275
0.00341216
0.00341144
0.00341075
0.00341018
0.00340976
0.0034095
0.00340938
0.00340965
0.00341004
0.00341058
0.00341125
0.00341202
0.00341284
0.00341369
0.00341451
0.00341529
0.00341601
0.00341659
0.00341715
0.00341768
0.00341815
0.00341853
0.00341879
0.00341901
0.00341921
0.00341939
0.00341952
0.00341962
0.0034197
0.00341975
0.00341979
0.00341981
0.00341982
0.0034198
0.00341979
0.00341979
0.00341979
0.00331297
0.00331297
0.00331293
0.00331286
0.00331277
0.00331267
0.00331253
0.00331236
0.00331214
0.00331188
0.00331157
0.0033112
0.00331078
0.0033103
0.00330976
0.00330916
0.00330856
0.00330792
0.00330714
0.00330627
0.00330535
0.00330441
0.00330349
0.00330276
0.00330195
0.00330115
0.00330049
0.0033
0.00329971
0.00329959
0.0032999
0.00330037
0.00330101
0.00330179
0.00330268
0.00330363
0.00330457
0.00330549
0.00330638
0.0033072
0.00330786
0.0033085
0.00330909
0.00330959
0.00330998
0.00331025
0.00331049
0.0033107
0.00331087
0.003311
0.0033111
0.00331116
0.00331121
0.00331124
0.00331125
0.00331125
0.00331123
0.00331121
0.00331121
0.00331121
0.00321092
0.00321091
0.00321087
0.0032108
0.00321071
0.00321061
0.00321047
0.00321028
0.00321006
0.00320979
0.00320946
0.00320907
0.00320864
0.00320813
0.00320756
0.00320692
0.00320625
0.00320554
0.00320471
0.00320377
0.00320275
0.0032017
0.00320067
0.00319973
0.00319895
0.00319803
0.00319726
0.00319671
0.00319641
0.00319629
0.00319666
0.00319724
0.00319799
0.0031989
0.00319991
0.00320099
0.00320191
0.00320295
0.00320389
0.0032048
0.00320561
0.00320634
0.00320697
0.00320747
0.00320784
0.00320815
0.00320841
0.00320863
0.00320879
0.00320891
0.00320899
0.00320904
0.00320907
0.00320909
0.00320909
0.00320908
0.00320906
0.00320903
0.00320902
0.00320902
0.00311473
0.00311473
0.00311469
0.00311462
0.00311453
0.00311442
0.00311427
0.00311409
0.00311386
0.00311358
0.00311325
0.00311285
0.00311239
0.00311186
0.00311126
0.00311058
0.00310983
0.00310904
0.00310817
0.00310718
0.00310609
0.00310494
0.0031038
0.00310324
0.00314881
0.00314786
0.00314702
0.00314643
0.00314612
0.00314603
0.00314645
0.0031471
0.00314792
0.0031489
0.00314998
0.00315111
0.00310586
0.00310639
0.00310746
0.00310846
0.00310937
0.00311015
0.00311079
0.00311127
0.00311165
0.00311198
0.00311225
0.00311246
0.00311261
0.00311271
0.00311277
0.0031128
0.00311281
0.00311282
0.0031128
0.00311278
0.00311275
0.00311272
0.00311271
0.0031127
0.00302394
0.00302394
0.00302389
0.00302383
0.00302374
0.00302362
0.00302348
0.00302329
0.00302306
0.00302278
0.00302244
0.00302203
0.00302157
0.00302103
0.0030204
0.00301968
0.00301888
0.00301801
0.00301708
0.00301607
0.00301491
0.00301368
0.00301298
0.00305604
0.00305307
0.00305217
0.00305122
0.00305055
0.00305023
0.00305021
0.00305072
0.00305149
0.00305245
0.00305355
0.00305474
0.00305591
0.00305892
0.00301602
0.00301668
0.00301773
0.00301867
0.00301947
0.0030201
0.00302057
0.00302095
0.00302128
0.00302153
0.00302171
0.00302184
0.00302191
0.00302195
0.00302196
0.00302195
0.00302194
0.00302191
0.00302187
0.00302183
0.00302179
0.00302177
0.00302177
0.00293811
0.00293811
0.00293807
0.002938
0.00293791
0.0029378
0.00293766
0.00293747
0.00293724
0.00293696
0.00293662
0.00293621
0.00293574
0.00293519
0.00293455
0.00293382
0.00293298
0.00293206
0.00293108
0.00293002
0.00292882
0.00292756
0.00292732
0.00296593
0.00296296
0.00298387
0.00298289
0.00298222
0.00298198
0.00298209
0.00298276
0.00298366
0.0029847
0.00298586
0.00298705
0.00296684
0.00296941
0.00293084
0.00293114
0.00293219
0.00293311
0.00293386
0.00293445
0.00293491
0.0029353
0.0029356
0.00293582
0.00293597
0.00293606
0.0029361
0.00293611
0.00293609
0.00293606
0.00293602
0.00293597
0.00293592
0.00293586
0.00293582
0.00293579
0.00293579
0.00285686
0.00285685
0.00285681
0.00285675
0.00285667
0.00285656
0.00285642
0.00285623
0.00285601
0.00285573
0.0028554
0.00285499
0.00285452
0.00285397
0.00285333
0.00285259
0.00285174
0.00285079
0.00284975
0.00284865
0.00284745
0.00284625
0.0028466
0.00288109
0.0028781
0.00289745
0.0028963
0.00289583
0.00289594
0.00289649
0.00289741
0.00289842
0.00289946
0.00290053
0.00290151
0.00288354
0.00288539
0.00285071
0.00285055
0.00285149
0.00285231
0.00285298
0.00285352
0.00285396
0.00285431
0.00285457
0.00285473
0.00285483
0.00285488
0.00285488
0.00285485
0.0028548
0.00285474
0.00285467
0.0028546
0.00285454
0.00285447
0.00285441
0.00285438
0.00285437
0.00277983
0.00277983
0.00277979
0.00277973
0.00277965
0.00277955
0.00277941
0.00277924
0.00277902
0.00277875
0.00277843
0.00277803
0.00277757
0.00277703
0.00277639
0.00277566
0.00277482
0.00277387
0.00277281
0.00277168
0.0027705
0.00276947
0.00277058
0.0028014
0.00279847
0.00281701
0.00281568
0.00281604
0.00281717
0.00281864
0.00281995
0.00282081
0.00282139
0.00282189
0.00282245
0.00280554
0.00280697
0.00277546
0.00277464
0.00277534
0.00277598
0.00277653
0.002777
0.00277737
0.00277765
0.00277782
0.00277792
0.00277796
0.00277795
0.0027779
0.00277783
0.00277774
0.00277765
0.00277756
0.00277746
0.00277738
0.0027773
0.00277723
0.00277719
0.00277718
0.00270671
0.00270671
0.00270668
0.00270663
0.00270655
0.00270645
0.00270633
0.00270617
0.00270596
0.0027057
0.00270539
0.00270501
0.00270457
0.00270404
0.00270343
0.00270271
0.0027019
0.00270099
0.00269996
0.00269886
0.00269775
0.002697
0.002699
0.00272664
0.0027244
0.00274309
0.00274184
0.00274507
0.00274955
0.00275383
0.00275586
0.00275536
0.00275365
0.00275194
0.00275093
0.00273358
0.00273425
0.00270498
0.00270321
0.00270349
0.00270387
0.00270426
0.00270459
0.00270483
0.00270498
0.00270506
0.00270508
0.00270504
0.00270496
0.00270486
0.00270474
0.0027046
0.00270447
0.00270435
0.00270423
0.00270412
0.00270402
0.00270394
0.0027039
0.00270388
0.00263723
0.00263723
0.0026372
0.00263715
0.00263708
0.002637
0.00263688
0.00263673
0.00263654
0.0026363
0.00263601
0.00263565
0.00263523
0.00263474
0.00263416
0.00263348
0.00263271
0.00263185
0.00263091
0.00262993
0.00262899
0.00262865
0.00263165
0.00265669
0.00265643
0.00267613
0.00267773
0.0026893
0.0027058
0.00272074
0.00272414
0.00271602
0.00270436
0.00269495
0.00268888
0.00266869
0.00266741
0.00263932
0.00263621
0.00263583
0.0026358
0.00263589
0.00263599
0.00263604
0.00263604
0.00263599
0.0026359
0.00263577
0.00263562
0.00263545
0.00263527
0.00263509
0.00263492
0.00263476
0.00263462
0.00263449
0.00263437
0.00263428
0.00263422
0.00263421
0.00257111
0.00257112
0.00257109
0.00257105
0.00257099
0.00257092
0.00257081
0.00257068
0.00257051
0.00257029
0.00257002
0.00256969
0.00256931
0.00256885
0.00256831
0.00256769
0.00256699
0.00256622
0.0025654
0.00256459
0.00256396
0.00256419
0.00256824
0.0025914
0.00259522
0.00261777
0.00262969
0.00266898
0.00273687
0.00280682
0.00281189
0.00275513
0.00269658
0.00265977
0.00263969
0.00261259
0.0026068
0.0025786
0.00257356
0.00257215
0.00257149
0.00257116
0.00257093
0.00257074
0.00257055
0.00257035
0.00257013
0.0025699
0.00256966
0.00256942
0.00256918
0.00256895
0.00256873
0.00256854
0.00256837
0.00256821
0.00256808
0.00256798
0.00256791
0.00256789
0.00250813
0.00250814
0.00250812
0.00250808
0.00250803
0.00250797
0.00250789
0.00250777
0.00250762
0.00250743
0.00250719
0.0025069
0.00250655
0.00250614
0.00250566
0.0025051
0.00250449
0.00250383
0.00250317
0.00250261
0.00250238
0.0025033
0.00250852
0.00253081
0.00254101
0.0025705
0.00261386
0.00275102
0.00292805
0.00307946
0.00308404
0.0029563
0.00279697
0.00266464
0.0026083
0.00256688
0.00255285
0.00252297
0.00251514
0.0025122
0.0025107
0.00250981
0.00250918
0.00250869
0.00250827
0.00250789
0.00250753
0.00250718
0.00250684
0.00250652
0.00250622
0.00250593
0.00250567
0.00250544
0.00250524
0.00250506
0.00250491
0.0025048
0.00250472
0.0025047
0.00244807
0.00244808
0.00244807
0.00244804
0.002448
0.00244795
0.00244789
0.00244779
0.00244766
0.0024475
0.0024473
0.00244704
0.00244674
0.00244638
0.00244597
0.0024455
0.00244499
0.00244446
0.00244399
0.00244371
0.00244396
0.00244557
0.00245198
0.00247475
0.00249354
0.0025385
0.00266192
0.00294587
0.00331338
0.00418546
0.00410901
0.00341781
0.0029934
0.00273918
0.00259943
0.00253245
0.00250599
0.00247219
0.00246073
0.00245573
0.00245317
0.00245158
0.00245047
0.00244963
0.00244895
0.00244837
0.00244785
0.00244737
0.00244694
0.00244653
0.00244616
0.00244582
0.00244552
0.00244525
0.00244502
0.00244482
0.00244465
0.00244453
0.00244444
0.00244442
0.00239073
0.00239075
0.00239074
0.00239072
0.00239069
0.00239066
0.00239061
0.00239054
0.00239044
0.00239031
0.00239014
0.00238993
0.00238968
0.00238939
0.00238905
0.00238867
0.00238827
0.00238789
0.00238762
0.00238763
0.00238836
0.00239058
0.00239811
0.00242234
0.00245083
0.00252456
0.00278865
0.00325762
0.00476832
0.00524298
0.00327949
0.00288081
0.00261447
0.00250735
0.00246559
0.00242574
0.00240993
0.0024024
0.00239862
0.00239622
0.00239456
0.00239332
0.00239236
0.00239156
0.00239087
0.00239026
0.00238972
0.00238923
0.00238879
0.0023884
0.00238806
0.00238776
0.0023875
0.00238728
0.0023871
0.00238696
0.00238688
0.00238685
0.00233594
0.00233596
0.00233596
0.00233595
0.00233593
0.00233592
0.00233589
0.00233584
0.00233577
0.00233567
0.00233555
0.00233538
0.00233519
0.00233496
0.00233469
0.00233441
0.00233413
0.00233391
0.00233384
0.00233413
0.00233526
0.00233796
0.00234639
0.0023721
0.00240992
0.00251962
0.00294222
0.00413883
0.114777
0.118169
0.0588826
0.00368745
0.00303811
0.00264715
0.00248702
0.00243033
0.00238275
0.00236228
0.00235196
0.00234684
0.00234354
0.00234128
0.00233962
0.00233834
0.00233731
0.00233645
0.00233571
0.00233506
0.00233449
0.00233398
0.00233353
0.00233314
0.00233281
0.00233252
0.00233228
0.00233209
0.00233194
0.00233184
0.00233182
0.00228353
0.00228355
0.00228355
0.00228356
0.00228355
0.00228355
0.00228354
0.00228352
0.00228348
0.00228342
0.00228334
0.00228322
0.00228308
0.00228292
0.00228274
0.00228255
0.00228239
0.00228231
0.00228243
0.00228296
0.00228439
0.00228745
0.00229651
0.00232292
0.00236802
0.00250183
0.00302426
0.00495336
0.118174
0.200178
0.273836
0.176728
0.0044042
0.00319585
0.00268812
0.00246566
0.00239821
0.00234201
0.00231708
0.00230397
0.00229749
0.00229327
0.00229038
0.00228829
0.0022867
0.00228543
0.00228439
0.00228351
0.00228276
0.0022821
0.00228153
0.00228103
0.0022806
0.00228023
0.00227992
0.00227966
0.00227945
0.00227929
0.00227918
0.00227915
0.00223334
0.00223337
0.00223338
0.00223339
0.0022334
0.00223342
0.00223343
0.00223343
0.00223342
0.0022334
0.00223336
0.0022333
0.00223322
0.00223312
0.00223302
0.00223293
0.00223288
0.00223292
0.00223319
0.00223391
0.00223554
0.00223892
0.00224844
0.00227469
0.00232455
0.00246522
0.00303587
0.0052515
0.200119
0.42562
0.416852
0.262673
0.00554531
0.00337021
0.00273164
0.00243856
0.0023676
0.00230238
0.0022736
0.00225805
0.00225028
0.00224513
0.00224164
0.00223912
0.00223722
0.00223573
0.00223451
0.00223351
0.00223265
0.00223192
0.00223128
0.00223074
0.00223026
0.00222987
0.00222953
0.00222925
0.00222902
0.00222886
0.00222875
0.00222871
0.00218524
0.00218528
0.0021853
0.00218532
0.00218534
0.00218538
0.00218541
0.00218544
0.00218546
0.00218548
0.00218548
0.00218547
0.00218544
0.00218541
0.00218539
0.00218537
0.0021854
0.00218553
0.00218594
0.00218684
0.00218869
0.00219237
0.00220252
0.0022284
0.00228368
0.00244362
0.00319357
0.0318643
0.487274
0.443938
0.42695
0.201192
0.00561971
0.00358134
0.00278114
0.00240701
0.00233847
0.00226313
0.00223143
0.00221394
0.00220492
0.00219893
0.00219487
0.00219194
0.00218975
0.00218804
0.00218667
0.00218554
0.00218459
0.00218379
0.0021831
0.0021825
0.002182
0.00218157
0.00218122
0.00218092
0.00218068
0.0021805
0.00218039
0.00218036
0.00213911
0.00213915
0.00213917
0.0021392
0.00213924
0.00213929
0.00213935
0.00213941
0.00213946
0.00213951
0.00213956
0.00213959
0.00213963
0.00213965
0.00213968
0.0021397
0.00213981
0.00214008
0.00214064
0.00214171
0.00214375
0.00214773
0.00215881
0.00218485
0.00225447
0.00246684
0.0046102
0.192253
0.314408
0.340621
0.298943
0.0944416
0.0055765
0.00374465
0.00283316
0.00237591
0.00230976
0.0022239
0.00219015
0.00217133
0.00216117
0.00215443
0.00214986
0.00214657
0.00214412
0.00214222
0.00214071
0.00213947
0.00213844
0.00213758
0.00213684
0.00213621
0.00213567
0.00213523
0.00213485
0.00213454
0.0021343
0.00213411
0.00213399
0.00213395
0.00209482
0.00209486
0.00209489
0.00209493
0.00209499
0.00209506
0.00209514
0.00209522
0.0020953
0.00209539
0.00209548
0.00209556
0.00209563
0.00209567
0.00209575
0.00209588
0.00209611
0.0020965
0.00209718
0.0020984
0.00210057
0.00210487
0.0021171
0.00214396
0.00223868
0.00251415
0.00812106
0.274259
0.249195
0.241869
0.17107
0.0392281
0.00550303
0.00379807
0.00285616
0.00235039
0.00227974
0.00218456
0.00214954
0.00212996
0.00211877
0.00211144
0.00210644
0.00210287
0.00210021
0.00209815
0.00209652
0.00209519
0.00209409
0.00209317
0.00209239
0.00209173
0.00209118
0.00209071
0.00209032
0.00209
0.00208974
0.00208955
0.00208943
0.00208939
0.00205226
0.00205231
0.00205234
0.0020524
0.00205247
0.00205255
0.00205265
0.00205276
0.00205288
0.002053
0.00205311
0.00205323
0.00205333
0.00205344
0.00205361
0.00205383
0.00205415
0.00205464
0.00205541
0.00205673
0.00205901
0.00206358
0.00207698
0.00210496
0.00222587
0.00254925
0.0100141
0.250736
0.213761
0.164839
0.0932938
0.0184162
0.00532877
0.00374952
0.0028323
0.00232985
0.00224673
0.00214558
0.00210966
0.00208966
0.00207768
0.00206993
0.00206454
0.00206071
0.00205788
0.00205569
0.00205397
0.00205257
0.00205142
0.00205046
0.00204965
0.00204897
0.00204839
0.00204791
0.00204751
0.00204718
0.00204692
0.00204673
0.00204661
0.00204657
0.00201134
0.00201139
0.00201143
0.00201149
0.00201158
0.00201168
0.0020118
0.00201194
0.00201208
0.00201222
0.00201235
0.00201249
0.00201266
0.00201286
0.0020131
0.0020134
0.0020138
0.00201436
0.00201521
0.00201661
0.00201893
0.00202372
0.00203814
0.00206693
0.00220695
0.00255747
0.0104284
0.208831
0.209926
0.116366
0.0544412
0.0110065
0.00506096
0.00363077
0.00277978
0.00231011
0.00221044
0.00210704
0.00207054
0.00205044
0.00203777
0.00202971
0.00202405
0.00202001
0.002017
0.00201472
0.00201295
0.00201151
0.00201032
0.00200933
0.0020085
0.00200781
0.00200722
0.00200673
0.00200633
0.002006
0.00200573
0.00200554
0.00200541
0.00200537
0.00197195
0.00197201
0.00197206
0.00197213
0.00197223
0.00197235
0.00197249
0.00197264
0.00197281
0.00197296
0.00197313
0.00197333
0.00197356
0.00197382
0.00197412
0.00197448
0.00197494
0.00197557
0.00197648
0.00197791
0.00198025
0.00198521
0.0020004
0.00202951
0.00218153
0.00254072
0.010502
0.174672
0.221835
0.0898223
0.0355598
0.00809998
0.00475134
0.00347193
0.00273565
0.00228692
0.0021721
0.00206924
0.00203219
0.00201214
0.00199905
0.00199072
0.00198486
0.00198069
0.00197757
0.00197521
0.00197337
0.00197192
0.00197071
0.00196971
0.00196887
0.00196817
0.00196758
0.00196708
0.00196668
0.00196635
0.00196608
0.00196589
0.00196576
0.00196572
0.00193402
0.00193409
0.00193414
0.00193422
0.00193433
0.00193447
0.00193462
0.00193479
0.00193497
0.00193516
0.00193539
0.00193564
0.00193591
0.00193623
0.00193658
0.001937
0.00193752
0.0019382
0.00193914
0.00194058
0.00194295
0.001948
0.00196375
0.00199282
0.00215255
0.00250649
0.0104818
0.150583
0.229111
0.0765187
0.0258426
0.00672398
0.00443978
0.00330113
0.00271411
0.0022586
0.00213319
0.00203245
0.00199468
0.0019747
0.00196144
0.00195295
0.00194688
0.00194265
0.00193946
0.00193705
0.00193518
0.0019337
0.00193251
0.00193151
0.00193067
0.00192996
0.00192937
0.00192888
0.00192848
0.00192815
0.00192789
0.0019277
0.00192757
0.00192753
0.00189747
0.00189753
0.00189759
0.00189768
0.0018978
0.00189795
0.00189811
0.00189829
0.0018985
0.00189875
0.00189901
0.00189931
0.00189963
0.00189999
0.00190039
0.00190086
0.00190143
0.00190216
0.00190313
0.0019046
0.00190697
0.00191207
0.0019283
0.00195716
0.00212291
0.00246359
0.0105347
0.134397
0.229787
0.0694907
0.0202854
0.00592014
0.00415288
0.00314039
0.00270537
0.00222575
0.00209501
0.00199683
0.00195808
0.00193817
0.0019249
0.00191634
0.00191016
0.00190583
0.00190258
0.00190014
0.00189829
0.00189681
0.00189562
0.00189464
0.00189381
0.00189312
0.00189253
0.00189205
0.00189165
0.00189133
0.00189107
0.00189088
0.00189076
0.00189072
0.00186221
0.00186228
0.00186235
0.00186244
0.00186257