/*--------------------------------*- C++ -*----------------------------------*\
  =========                 |
  \\      /  F ield         | OpenFOAM: The Open Source CFD Toolbox
   \\    /   O peration     | Website:  https://openfoam.org
    \\  /    A nd           | Version:  12
     \\/     M anipulation  |
\*---------------------------------------------------------------------------*/
FoamFile
{
    format      ascii;
    class       volScalarField;
    location    "440";
    object      nut;
}
// * * * * * * * * * * * * * * * * * * * * * * * * * * * * * * * * * * * * * //

dimensions      [0 2 -1 0 0 0 0];

internalField   nonuniform List<scalar> 
16227
(
0.000978543
0.000978543
0.000978543
0.000978543
0.000978543
0.000978543
0.000978543
0.000978543
0.000978543
0.000978543
0.000978543
0.000978543
0.000978544
0.000978544
0.000978544
0.000978544
0.000978544
0.000978544
0.000978544
0.000978544
0.000978544
0.000978544
0.000978544
0.000978544
0.000978544
0.000978544
0.000978544
0.000978544
0.000978544
0.000978544
0.000978544
0.000978544
0.000978544
0.000978544
0.000978544
0.000978544
0.000978544
0.000978544
0.000978544
0.000978544
0.000978544
0.000978544
0.000978544
0.000978544
0.000978544
0.000978544
0.000978544
0.000978544
0.000978544
0.000978544
0.000978544
0.000978543
0.000978543
0.000978543
0.000978543
0.000978543
0.000978543
0.000978543
0.000978543
0.000978543
0.000972834
0.000972834
0.000972834
0.000972834
0.000972834
0.000972835
0.000972835
0.000972834
0.000972834
0.000972835
0.000972835
0.000972835
0.000972836
0.000972837
0.000972837
0.000972837
0.000972837
0.000972837
0.000972837
0.000972837
0.000972837
0.000972837
0.000972837
0.000972837
0.000972837
0.000972837
0.000972837
0.000972837
0.000972837
0.000972836
0.000972837
0.000972837
0.000972837
0.000972837
0.000972837
0.000972837
0.000972836
0.000972836
0.000972836
0.000972836
0.000972836
0.000972836
0.000972836
0.000972836
0.000972836
0.000972836
0.000972836
0.000972836
0.000972836
0.000972836
0.000972836
0.000972836
0.000972835
0.000972835
0.000972834
0.000972834
0.000972834
0.000972834
0.000972834
0.000972834
0.000967494
0.000967495
0.000967495
0.000967495
0.000967495
0.000967495
0.000967495
0.000967495
0.000967495
0.000967495
0.000967495
0.000967496
0.000967498
0.000967498
0.000967498
0.000967499
0.000967499
0.000967498
0.000967499
0.000967498
0.000967498
0.000967498
0.000967498
0.000967498
0.000967498
0.000967498
0.000967498
0.000967498
0.000967498
0.000967497
0.000967498
0.000967498
0.000967498
0.000967498
0.000967498
0.000967498
0.000967498
0.000967498
0.000967498
0.000967498
0.000967498
0.000967498
0.000967497
0.000967497
0.000967497
0.000967497
0.000967497
0.000967497
0.000967497
0.000967497
0.000967497
0.000967495
0.000967495
0.000967494
0.000967494
0.000967494
0.000967494
0.000967494
0.000967494
0.000967494
0.000962482
0.000962482
0.000962482
0.000962482
0.000962482
0.000962483
0.000962483
0.000962483
0.000962483
0.000962483
0.000962483
0.000962484
0.000962486
0.000962487
0.000962487
0.000962487
0.000962487
0.000962487
0.000962487
0.000962485
0.000962486
0.000962487
0.000962486
0.000962486
0.000962486
0.000962486
0.000962486
0.000962486
0.000962485
0.000962485
0.000962485
0.000962485
0.000962485
0.000962485
0.000962485
0.000962485
0.000962485
0.000962485
0.000962485
0.000962485
0.000962485
0.000962485
0.000962485
0.000962485
0.000962485
0.000962485
0.000962485
0.000962485
0.000962485
0.000962485
0.000962483
0.000962482
0.000962481
0.000962481
0.000962481
0.000962481
0.000962481
0.00096248
0.00096248
0.00096248
0.000957762
0.000957762
0.000957762
0.000957762
0.000957762
0.000957763
0.000957763
0.000957762
0.000957763
0.000957763
0.000957763
0.000957763
0.000957766
0.000957767
0.000957767
0.000957767
0.000957767
0.000957767
0.000957764
0.000957764
0.000957765
0.000957766
0.000957766
0.000957765
0.000957765
0.000957765
0.000957765
0.000957764
0.000957764
0.000957763
0.000957764
0.000957764
0.000957764
0.000957764
0.000957763
0.000957763
0.000957763
0.000957764
0.000957764
0.000957764
0.000957764
0.000957764
0.000957764
0.000957764
0.000957764
0.000957764
0.000957764
0.000957764
0.000957764
0.000957763
0.00095776
0.000957759
0.000957759
0.000957759
0.000957759
0.00095776
0.000957759
0.000957758
0.000957758
0.000957758
0.000953303
0.000953303
0.000953303
0.000953303
0.000953304
0.000953304
0.000953304
0.000953304
0.000953304
0.000953304
0.000953304
0.000953304
0.000953305
0.000953308
0.000953309
0.000953309
0.000953309
0.000953307
0.000953304
0.000953304
0.000953306
0.000953306
0.000953306
0.000953305
0.000953305
0.000953305
0.000953304
0.000953304
0.000953303
0.000953302
0.000953302
0.000953303
0.000953303
0.000953303
0.000953302
0.000953303
0.000953303
0.000953303
0.000953303
0.000953303
0.000953303
0.000953303
0.000953303
0.000953303
0.000953303
0.000953303
0.000953303
0.000953304
0.000953303
0.000953302
0.000953299
0.000953298
0.000953298
0.000953298
0.000953299
0.000953299
0.000953298
0.000953298
0.000953298
0.000953297
0.000949081
0.000949081
0.000949081
0.000949081
0.000949081
0.000949081
0.000949082
0.000949082
0.000949081
0.000949081
0.000949081
0.000949081
0.000949081
0.000949084
0.000949086
0.000949086
0.000949085
0.000949081
0.00094908
0.000949079
0.000949082
0.000949082
0.000949081
0.00094908
0.00094908
0.000949079
0.000949078
0.000949078
0.000949077
0.000949076
0.000949076
0.000949076
0.000949076
0.000949076
0.000949076
0.000949076
0.000949077
0.000949077
0.000949077
0.000949077
0.000949078
0.000949078
0.000949078
0.000949078
0.000949079
0.000949079
0.000949079
0.000949079
0.000949078
0.000949075
0.000949073
0.000949072
0.000949073
0.000949073
0.000949074
0.000949074
0.000949073
0.000949072
0.000949073
0.000949072
0.000945072
0.000945072
0.000945072
0.000945073
0.000945072
0.000945073
0.000945073
0.000945073
0.000945072
0.000945072
0.000945071
0.000945071
0.000945071
0.000945072
0.000945075
0.000945076
0.000945075
0.00094507
0.000945069
0.000945068
0.00094507
0.00094507
0.000945069
0.000945068
0.000945067
0.000945066
0.000945065
0.000945064
0.000945063
0.000945062
0.000945063
0.000945063
0.000945063
0.000945063
0.000945063
0.000945063
0.000945064
0.000945064
0.000945064
0.000945065
0.000945065
0.000945066
0.000945066
0.000945066
0.000945067
0.000945067
0.000945067
0.000945067
0.000945066
0.000945062
0.000945061
0.000945061
0.000945061
0.000945062
0.000945062
0.000945062
0.000945061
0.000945061
0.000945061
0.000945061
0.000941259
0.000941259
0.000941259
0.000941258
0.000941258
0.000941259
0.000941259
0.000941259
0.000941258
0.000941257
0.000941256
0.000941255
0.000941255
0.000941256
0.00094126
0.000941261
0.000941258
0.000941253
0.000941251
0.000941251
0.000941252
0.000941252
0.000941251
0.000941249
0.000941248
0.000941247
0.000941245
0.000941244
0.000941243
0.000941241
0.000941242
0.000941242
0.000941242
0.000941243
0.000941243
0.000941243
0.000941244
0.000941245
0.000941245
0.000941246
0.000941247
0.000941247
0.000941248
0.000941248
0.000941249
0.000941249
0.00094125
0.000941249
0.000941245
0.000941244
0.000941243
0.000941243
0.000941244
0.000941244
0.000941244
0.000941244
0.000941244
0.000941243
0.000941243
0.000941243
0.000937622
0.000937622
0.000937622
0.000937622
0.000937622
0.000937622
0.000937622
0.000937622
0.000937621
0.000937621
0.000937619
0.000937618
0.000937617
0.000937618
0.000937621
0.000937621
0.000937616
0.000937613
0.000937611
0.00093761
0.000937611
0.000937611
0.000937609
0.000937607
0.000937605
0.000937603
0.000937602
0.000937601
0.000937599
0.000937597
0.000937598
0.000937598
0.000937598
0.000937599
0.000937599
0.0009376
0.000937601
0.000937602
0.000937603
0.000937604
0.000937605
0.000937606
0.000937607
0.000937607
0.000937608
0.000937609
0.000937609
0.000937608
0.000937604
0.000937603
0.000937603
0.000937603
0.000937604
0.000937604
0.000937604
0.000937604
0.000937604
0.000937603
0.000937603
0.000937603
0.000934149
0.000934149
0.000934149
0.000934149
0.000934149
0.000934149
0.000934149
0.000934148
0.000934147
0.000934146
0.000934145
0.000934143
0.000934141
0.000934141
0.000934142
0.000934144
0.000934139
0.000934135
0.000934133
0.000934131
0.000934132
0.000934131
0.000934129
0.000934126
0.000934124
0.000934122
0.00093412
0.000934118
0.000934117
0.000934115
0.000934115
0.000934116
0.000934116
0.000934117
0.000934117
0.000934119
0.00093412
0.000934121
0.000934122
0.000934124
0.000934125
0.000934127
0.000934128
0.000934129
0.00093413
0.000934131
0.00093413
0.000934128
0.000934126
0.000934125
0.000934125
0.000934125
0.000934126
0.000934126
0.000934127
0.000934127
0.000934126
0.000934126
0.000934126
0.000934126
0.000930826
0.000930826
0.000930826
0.000930826
0.000930825
0.000930825
0.000930825
0.000930824
0.000930823
0.000930822
0.00093082
0.000930818
0.000930816
0.000930814
0.000930814
0.000930815
0.000930811
0.000930807
0.000930804
0.000930801
0.000930799
0.000930799
0.000930797
0.000930794
0.000930791
0.000930789
0.000930786
0.000930784
0.000930783
0.00093078
0.000930781
0.000930782
0.000930782
0.000930783
0.000930784
0.000930786
0.000930787
0.000930789
0.000930791
0.000930793
0.000930795
0.000930797
0.000930798
0.0009308
0.000930801
0.000930801
0.000930799
0.000930799
0.000930797
0.000930797
0.000930797
0.000930797
0.000930798
0.000930798
0.000930799
0.000930799
0.000930798
0.000930798
0.000930798
0.000930798
0.000927641
0.000927641
0.000927641
0.000927641
0.00092764
0.00092764
0.000927639
0.000927638
0.000927637
0.000927635
0.000927633
0.000927631
0.000927628
0.000927625
0.000927623
0.000927622
0.00092762
0.000927616
0.000927612
0.000927609
0.000927605
0.000927605
0.000927603
0.000927599
0.000927595
0.000927592
0.00092759
0.000927587
0.000927585
0.000927583
0.000927584
0.000927584
0.000927585
0.000927587
0.000927588
0.00092759
0.000927593
0.000927595
0.000927597
0.0009276
0.000927602
0.000927605
0.000927607
0.000927609
0.00092761
0.00092761
0.000927608
0.000927608
0.000927607
0.000927606
0.000927607
0.000927607
0.000927608
0.000927609
0.000927609
0.000927609
0.000927609
0.000927608
0.000927608
0.000927608
0.000924584
0.000924584
0.000924584
0.000924583
0.000924583
0.000924582
0.000924582
0.00092458
0.000924579
0.000924577
0.000924574
0.000924572
0.000924568
0.000924565
0.000924562
0.000924559
0.000924557
0.000924553
0.000924548
0.000924544
0.000924539
0.000924539
0.000924535
0.000924531
0.000924526
0.000924523
0.00092452
0.000924517
0.000924515
0.000924512
0.000924513
0.000924514
0.000924515
0.000924517
0.000924519
0.000924522
0.000924525
0.000924528
0.000924531
0.000924534
0.000924537
0.00092454
0.000924543
0.000924545
0.000924545
0.000924545
0.000924545
0.000924545
0.000924545
0.000924544
0.000924545
0.000924545
0.000924546
0.000924547
0.000924547
0.000924547
0.000924547
0.000924546
0.000924546
0.000924546
0.000921646
0.000921646
0.000921646
0.000921645
0.000921645
0.000921644
0.000921643
0.000921641
0.00092164
0.000921637
0.000921634
0.000921631
0.000921627
0.000921623
0.000921619
0.000921616
0.000921613
0.000921608
0.000921602
0.000921597
0.000921592
0.00092159
0.000921586
0.00092158
0.000921575
0.000921571
0.000921567
0.000921564
0.000921562
0.000921559
0.00092156
0.000921562
0.000921563
0.000921566
0.000921568
0.000921572
0.000921576
0.000921579
0.000921583
0.000921587
0.000921591
0.000921595
0.000921598
0.000921599
0.000921599
0.0009216
0.000921601
0.000921601
0.000921601
0.000921601
0.000921601
0.000921602
0.000921603
0.000921603
0.000921604
0.000921604
0.000921603
0.000921603
0.000921603
0.000921603
0.000918819
0.000918819
0.000918819
0.000918818
0.000918817
0.000918816
0.000918815
0.000918813
0.000918811
0.000918808
0.000918805
0.000918801
0.000918797
0.000918792
0.000918787
0.000918783
0.000918779
0.000918773
0.000918766
0.00091876
0.000918754
0.00091875
0.000918746
0.000918739
0.000918734
0.000918729
0.000918724
0.000918721
0.000918718
0.000918716
0.000918717
0.000918719
0.000918721
0.000918724
0.000918728
0.000918732
0.000918736
0.000918741
0.000918746
0.000918751
0.000918755
0.000918759
0.000918763
0.000918764
0.000918764
0.000918766
0.000918767
0.000918767
0.000918767
0.000918768
0.000918769
0.000918769
0.00091877
0.00091877
0.000918771
0.000918771
0.00091877
0.00091877
0.00091877
0.00091877
0.000916095
0.000916095
0.000916094
0.000916093
0.000916092
0.000916091
0.00091609
0.000916088
0.000916085
0.000916082
0.000916078
0.000916074
0.000916069
0.000916064
0.000916058
0.000916053
0.000916048
0.000916041
0.000916034
0.000916026
0.000916018
0.000916011
0.000916008
0.000916001
0.000915995
0.000915989
0.000915984
0.000915981
0.000915978
0.000915975
0.000915977
0.000915979
0.000915982
0.000915985
0.00091599
0.000915995
0.000916001
0.000916006
0.000916012
0.000916017
0.000916023
0.000916027
0.00091603
0.000916031
0.000916033
0.000916035
0.000916037
0.000916037
0.000916037
0.000916038
0.000916039
0.00091604
0.00091604
0.000916041
0.000916041
0.000916041
0.000916041
0.00091604
0.00091604
0.00091604
0.000913467
0.000913467
0.000913467
0.000913466
0.000913464
0.000913463
0.000913461
0.000913459
0.000913456
0.000913453
0.000913448
0.000913444
0.000913438
0.000913432
0.000913425
0.000913419
0.000913414
0.000913406
0.000913397
0.000913388
0.000913379
0.00091337
0.000913366
0.00091336
0.000913352
0.000913346
0.000913341
0.000913337
0.000913334
0.000913331
0.000913334
0.000913336
0.00091334
0.000913344
0.000913349
0.000913355
0.000913362
0.000913368
0.000913375
0.000913381
0.000913387
0.000913392
0.000913393
0.000913396
0.000913399
0.000913402
0.000913403
0.000913404
0.000913404
0.000913405
0.000913406
0.000913406
0.000913407
0.000913407
0.000913408
0.000913407
0.000913407
0.000913406
0.000913406
0.000913406
0.00091093
0.00091093
0.000910929
0.000910928
0.000910927
0.000910925
0.000910923
0.000910921
0.000910918
0.000910914
0.000910909
0.000910904
0.000910897
0.000910891
0.000910883
0.000910877
0.00091087
0.000910861
0.000910852
0.000910841
0.000910831
0.000910822
0.000910816
0.000910809
0.000910802
0.000910795
0.000910789
0.000910785
0.000910783
0.00091078
0.000910783
0.000910786
0.00091079
0.000910795
0.000910801
0.000910808
0.000910815
0.000910823
0.00091083
0.000910837
0.000910843
0.000910848
0.00091085
0.000910853
0.000910856
0.000910859
0.00091086
0.000910861
0.000910862
0.000910863
0.000910863
0.000910864
0.000910864
0.000910864
0.000910864
0.000910864
0.000910863
0.000910863
0.000910863
0.000910863
0.000908477
0.000908477
0.000908477
0.000908476
0.000908474
0.000908472
0.00090847
0.000908468
0.000908464
0.00090846
0.000908455
0.000908449
0.000908442
0.000908435
0.000908427
0.000908419
0.000908411
0.000908402
0.000908391
0.00090838
0.000908369
0.000908359
0.00090835
0.000908345
0.000908338
0.000908332
0.000908327
0.000908323
0.000908321
0.000908319
0.000908322
0.000908325
0.00090833
0.000908335
0.000908341
0.000908348
0.000908356
0.000908364
0.000908372
0.000908378
0.000908384
0.000908388
0.000908392
0.000908396
0.0009084
0.000908402
0.000908403
0.000908404
0.000908405
0.000908405
0.000908406
0.000908406
0.000908406
0.000908406
0.000908406
0.000908405
0.000908404
0.000908404
0.000908404
0.000908404
0.000906105
0.000906105
0.000906104
0.000906103
0.000906101
0.0009061
0.000906097
0.000906094
0.000906091
0.000906086
0.000906081
0.000906075
0.000906067
0.000906059
0.000906051
0.000906041
0.000906033
0.000906023
0.000906013
0.000906001
0.000905989
0.000905978
0.00090597
0.000905966
0.000905961
0.000905956
0.000905952
0.000905949
0.000905948
0.000905947
0.00090595
0.000905953
0.000905957
0.000905962
0.000905968
0.000905974
0.000905982
0.00090599
0.000905997
0.000906003
0.000906008
0.000906012
0.000906017
0.000906021
0.000906024
0.000906026
0.000906026
0.000906027
0.000906028
0.000906028
0.000906028
0.000906028
0.000906028
0.000906027
0.000906027
0.000906026
0.000906025
0.000906024
0.000906024
0.000906024
0.000903808
0.000903807
0.000903807
0.000903806
0.000903804
0.000903802
0.0009038
0.000903797
0.000903793
0.000903788
0.000903783
0.000903776
0.000903769
0.00090376
0.000903751
0.000903741
0.000903732
0.000903722
0.000903711
0.0009037
0.000903688
0.000903679
0.000903672
0.000903671
0.00090367
0.000903668
0.000903666
0.000903666
0.000903667
0.000903667
0.00090367
0.000903673
0.000903675
0.000903677
0.00090368
0.000903684
0.00090369
0.000903697
0.000903703
0.000903709
0.000903713
0.000903717
0.000903721
0.000903724
0.000903726
0.000903727
0.000903727
0.000903727
0.000903728
0.000903727
0.000903727
0.000903726
0.000903725
0.000903724
0.000903723
0.000903722
0.000903721
0.00090372
0.000903719
0.000903719
0.000901581
0.000901581
0.000901581
0.000901579
0.000901578
0.000901576
0.000901574
0.00090157
0.000901567
0.000901562
0.000901556
0.000901549
0.000901542
0.000901533
0.000901524
0.000901514
0.000901504
0.000901495
0.000901485
0.000901474
0.000901464
0.000901457
0.000901454
0.000901458
0.000901468
0.000901473
0.000901478
0.000901484
0.000901491
0.000901495
0.0009015
0.000901502
0.0009015
0.000901496
0.000901491
0.000901489
0.000901481
0.000901486
0.000901489
0.000901492
0.000901495
0.000901497
0.0009015
0.000901501
0.000901501
0.000901501
0.0009015
0.0009015
0.000901499
0.000901498
0.000901496
0.000901495
0.000901493
0.000901492
0.00090149
0.000901489
0.000901487
0.000901486
0.000901485
0.000901485
0.000899422
0.000899422
0.000899421
0.00089942
0.000899419
0.000899417
0.000899415
0.000899412
0.000899408
0.000899403
0.000899397
0.000899391
0.000899383
0.000899375
0.000899366
0.000899356
0.000899346
0.000899337
0.000899329
0.000899321
0.000899314
0.000899311
0.000899316
0.000899355
0.000900367
0.000900377
0.000900388
0.000900401
0.000900415
0.000900426
0.000900436
0.000900438
0.000900433
0.000900424
0.000900412
0.000900402
0.000899382
0.000899361
0.000899358
0.000899355
0.000899353
0.000899352
0.000899351
0.000899349
0.000899346
0.000899345
0.000899343
0.000899341
0.000899338
0.000899336
0.000899333
0.000899331
0.000899328
0.000899326
0.000899324
0.000899322
0.00089932
0.000899319
0.000899318
0.000899317
0.000897326
0.000897326
0.000897326
0.000897325
0.000897323
0.000897322
0.00089732
0.000897317
0.000897313
0.000897309
0.000897303
0.000897297
0.00089729
0.000897282
0.000897273
0.000897264
0.000897255
0.000897247
0.000897242
0.000897239
0.000897238
0.000897244
0.000897283
0.000898294
0.000898255
0.00089829
0.000898323
0.000898359
0.000898396
0.000898424
0.000898441
0.00089844
0.000898421
0.000898389
0.000898351
0.000898319
0.000898341
0.000897337
0.000897316
0.0008973
0.000897289
0.000897281
0.000897273
0.000897266
0.00089726
0.000897256
0.000897251
0.000897247
0.000897243
0.000897239
0.000897235
0.000897231
0.000897227
0.000897224
0.000897221
0.000897218
0.000897216
0.000897214
0.000897213
0.000897213
0.000895291
0.000895291
0.000895291
0.00089529
0.000895288
0.000895287
0.000895285
0.000895282
0.000895279
0.000895275
0.00089527
0.000895265
0.000895258
0.000895251
0.000895244
0.000895237
0.00089523
0.000895225
0.000895224
0.000895228
0.000895236
0.000895257
0.000895352
0.000896267
0.000896245
0.000896804
0.000896866
0.000896937
0.000897013
0.000897075
0.000897109
0.000897106
0.000897066
0.000897
0.00089692
0.000896374
0.000896363
0.000895414
0.000895367
0.00089533
0.000895302
0.000895281
0.000895264
0.00089525
0.00089524
0.000895231
0.000895223
0.000895216
0.000895209
0.000895203
0.000895197
0.000895191
0.000895186
0.000895182
0.000895178
0.000895175
0.000895172
0.00089517
0.000895168
0.000895167
0.000893313
0.000893313
0.000893312
0.000893311
0.000893311
0.000893309
0.000893308
0.000893306
0.000893303
0.0008933
0.000893296
0.000893291
0.000893286
0.00089328
0.000893275
0.00089327
0.000893267
0.000893267
0.000893272
0.000893286
0.000893311
0.00089336
0.000893538
0.000894372
0.000894365
0.000895018
0.000895099
0.000895275
0.000895464
0.00089562
0.000895694
0.00089567
0.000895561
0.000895401
0.000895217
0.000894588
0.000894546
0.000893611
0.000893519
0.000893449
0.000893394
0.000893353
0.000893323
0.0008933
0.000893282
0.000893267
0.000893255
0.000893243
0.000893233
0.000893224
0.000893216
0.000893209
0.000893203
0.000893197
0.000893192
0.000893188
0.000893184
0.000893181
0.00089318
0.000893179
0.000891388
0.000891388
0.000891388
0.000891388
0.000891387
0.000891386
0.000891385
0.000891384
0.000891382
0.000891379
0.000891376
0.000891373
0.00089137
0.000891366
0.000891364
0.000891363
0.000891365
0.000891372
0.000891387
0.000891416
0.000891465
0.000891561
0.000891858
0.000892636
0.000892686
0.000893577
0.00089369
0.000894114
0.000894569
0.000894932
0.000895061
0.00089494
0.000894639
0.000894261
0.000893881
0.000893015
0.000892947
0.000891957
0.000891786
0.000891664
0.000891568
0.0008915
0.000891451
0.000891415
0.000891386
0.000891363
0.000891344
0.000891328
0.000891314
0.000891301
0.000891291
0.000891281
0.000891273
0.000891266
0.00089126
0.000891254
0.00089125
0.000891247
0.000891245
0.000891244
0.000889515
0.000889516
0.000889516
0.000889515
0.000889515
0.000889515
0.000889515
0.000889514
0.000889513
0.000889511
0.00088951
0.000889508
0.000889507
0.000889507
0.000889508
0.000889512
0.000889521
0.000889538
0.000889568
0.000889619
0.000889704
0.00088987
0.000890329
0.000891087
0.000891316
0.000892619
0.000892901
0.00089398
0.00089519
0.000896146
0.000896386
0.000895894
0.000894997
0.000894038
0.0008932
0.000891812
0.000891641
0.000890493
0.000890186
0.000889984
0.000889829
0.000889723
0.000889648
0.000889592
0.000889549
0.000889516
0.000889489
0.000889466
0.000889447
0.000889431
0.000889417
0.000889405
0.000889395
0.000889386
0.000889378
0.000889372
0.000889367
0.000889363
0.00088936
0.000889359
0.000887691
0.000887692
0.000887692
0.000887692
0.000887693
0.000887693
0.000887693
0.000887693
0.000887694
0.000887694
0.000887694
0.000887695
0.000887696
0.000887699
0.000887705
0.000887716
0.000887734
0.000887764
0.000887813
0.000887895
0.00088803
0.000888295
0.000888955
0.000889758
0.000890413
0.000892351
0.000893326
0.000896239
0.000899953
0.000903074
0.000903535
0.00090139
0.000898339
0.000895632
0.000893632
0.000891239
0.000890725
0.00088928
0.000888747
0.000888422
0.000888183
0.000888024
0.000887912
0.00088783
0.00088777
0.000887723
0.000887686
0.000887656
0.000887631
0.00088761
0.000887593
0.000887578
0.000887565
0.000887554
0.000887545
0.000887538
0.000887532
0.000887527
0.000887524
0.000887523
0.000885914
0.000885915
0.000885915
0.000885916
0.000885916
0.000885917
0.000885919
0.00088592
0.000885921
0.000885923
0.000885926
0.000885929
0.000885934
0.000885941
0.000885953
0.000885971
0.000886
0.000886046
0.00088612
0.00088624
0.000886443
0.000886831
0.000887724
0.000888679
0.000890164
0.000893097
0.000896338
0.000904981
0.000918981
0.000927761
0.000933518
0.000921818
0.000909298
0.00090091
0.000895913
0.000891687
0.000890329
0.00088839
0.000887502
0.000886986
0.000886633
0.000886402
0.000886242
0.000886129
0.000886046
0.000885983
0.000885934
0.000885895
0.000885863
0.000885837
0.000885815
0.000885797
0.000885782
0.000885769
0.000885759
0.00088575
0.000885743
0.000885738
0.000885734
0.000885733
0.000884181
0.000884182
0.000884182
0.000884183
0.000884185
0.000884187
0.000884189
0.000884191
0.000884194
0.000884198
0.000884203
0.000884209
0.000884217
0.00088423
0.000884248
0.000884275
0.000884316
0.00088438
0.000884483
0.000884649
0.000884935
0.000885459
0.000886607
0.000887877
0.000890694
0.000895429
0.000905196
0.000924776
0.000413318
0.000274053
0.000288866
0.00046303
0.000940467
0.000913605
0.000901086
0.000893582
0.000890604
0.00088789
0.00088648
0.000885684
0.000885182
0.000884858
0.000884638
0.000884485
0.000884374
0.000884292
0.000884229
0.00088418
0.000884141
0.000884109
0.000884083
0.000884061
0.000884043
0.000884028
0.000884016
0.000884006
0.000883997
0.000883992
0.000883988
0.000883986
0.00088249
0.000882491
0.000882492
0.000882493
0.000882495
0.000882498
0.000882501
0.000882505
0.00088251
0.000882516
0.000882523
0.000882533
0.000882545
0.000882563
0.000882588
0.000882625
0.00088268
0.000882764
0.000882897
0.000883114
0.000883489
0.000884145
0.000885557
0.00088734
0.000891948
0.000900266
0.000926177
0.000466503
0.000220596
0.000105188
0.00011594
0.000206116
0.000517493
0.000939412
0.000910273
0.000897155
0.000891664
0.000887809
0.000885694
0.000884515
0.000883827
0.000883389
0.000883097
0.000882896
0.000882754
0.000882649
0.00088257
0.000882509
0.000882461
0.000882423
0.000882392
0.000882366
0.000882345
0.000882328
0.000882314
0.000882303
0.000882294
0.000882287
0.000882283
0.000882281
0.000880838
0.00088084
0.000880841
0.000880843
0.000880846
0.00088085
0.000880854
0.00088086
0.000880867
0.000880875
0.000880885
0.000880898
0.000880915
0.000880938
0.000880971
0.000881017
0.000881087
0.000881191
0.000881356
0.000881623
0.000882083
0.000882851
0.000884521
0.000886956
0.000893623
0.000908229
0.000959053
0.000405252
0.000347483
0.000177314
0.000470848
0.000973253
0.000923821
0.000902135
0.00089349
0.000888107
0.000885132
0.00088347
0.000882563
0.00088199
0.000881614
0.000881358
0.000881179
0.000881049
0.000880953
0.00088088
0.000880822
0.000880777
0.000880741
0.000880711
0.000880687
0.000880667
0.000880652
0.000880639
0.000880629
0.000880622
0.000880617
0.000880615
0.000879225
0.000879227
0.000879229
0.000879231
0.000879235
0.00087924
0.000879246
0.000879253
0.000879262
0.000879272
0.000879285
0.000879302
0.000879324
0.000879353
0.000879393
0.00087945
0.000879533
0.000879657
0.000879851
0.000880163
0.000880696
0.00088155
0.000883442
0.000886496
0.000895204
0.000917627
0.000990993
0.000727846
0.00191201
0.000646993
0.00289646
0.00067346
0.000999587
0.000940595
0.000907676
0.000895891
0.000888666
0.000884742
0.000882529
0.00088138
0.000880655
0.000880185
0.000879869
0.000879649
0.000879492
0.000879377
0.00087929
0.000879223
0.00087917
0.000879128
0.000879094
0.000879067
0.000879045
0.000879028
0.000879014
0.000879003
0.000878995
0.00087899
0.000878987
0.000877649
0.000877651
0.000877653
0.000877656
0.000877661
0.000877666
0.000877674
0.000877683
0.000877694
0.000877707
0.000877723
0.000877744
0.00087777
0.000877805
0.000877853
0.000877919
0.000878016
0.000878157
0.000878377
0.000878727
0.000879313
0.000880233
0.000882297
0.000885769
0.000896182
0.000924126
0.00101142
0.000889656
0.00372781
0.0133019
0.00948574
0.0175498
0.000805954
0.00102241
0.000958764
0.000912682
0.000898565
0.000889304
0.000884443
0.000881662
0.000880261
0.000879374
0.000878804
0.000878422
0.000878161
0.000877974
0.000877838
0.000877737
0.00087766
0.000877599
0.000877552
0.000877514
0.000877484
0.000877459
0.00087744
0.000877425
0.000877412
0.000877404
0.000877398
0.000877396
0.000876107
0.000876109
0.000876112
0.000876116
0.000876121
0.000876128
0.000876137
0.000876148
0.000876161
0.000876176
0.000876196
0.00087622
0.000876252
0.000876292
0.000876347
0.000876423
0.000876531
0.000876688
0.00087693
0.00087731
0.000877933
0.000878911
0.000881125
0.000884809
0.000896486
0.000926442
0.00102129
0.000934547
0.0066821
0.0310408
0.0673338
0.0483201
0.00095252
0.00105812
0.000977449
0.000916215
0.000901267
0.000889851
0.000884143
0.00088084
0.000879189
0.000878134
0.000877463
0.000877014
0.000876708
0.000876492
0.000876335
0.000876219
0.000876131
0.000876063
0.00087601
0.000875968
0.000875934
0.000875908
0.000875886
0.00087587
0.000875857
0.000875848
0.000875841
0.000875839
0.000874598
0.000874601
0.000874604
0.000874608
0.000874615
0.000874623
0.000874633
0.000874646
0.000874661
0.00087468
0.000874702
0.000874731
0.000874766
0.000874813
0.000874875
0.000874958
0.000875077
0.000875246
0.000875506
0.000875912
0.000876564
0.000877603
0.000880004
0.000883842
0.000897027
0.000931654
0.00105015
0.00270436
0.0332668
0.0883889
0.0902111
0.061288
0.00097933
0.00111133
0.000997577
0.000918608
0.00090408
0.000890199
0.000883797
0.000880055
0.000878149
0.00087693
0.000876156
0.00087564
0.000875289
0.000875042
0.000874864
0.000874733
0.000874635
0.000874559
0.0008745
0.000874454
0.000874418
0.000874389
0.000874366
0.000874348
0.000874334
0.000874324
0.000874318
0.000874315
0.000873121
0.000873124
0.000873127
0.000873133
0.00087314
0.000873149
0.000873161
0.000873176
0.000873194
0.000873215
0.000873241
0.000873273
0.000873313
0.000873365
0.000873432
0.000873522
0.00087365
0.000873832
0.000874109
0.000874536
0.000875213
0.000876323
0.000878986
0.000883081
0.000899872
0.000946202
0.00130698
0.00867312
0.0880894
0.1
0.1
0.025281
0.00105622
0.0011629
0.00101872
0.000921058
0.000906851
0.000890295
0.000883353
0.000879282
0.000877123
0.00087575
0.000874877
0.000874295
0.000873899
0.000873622
0.000873423
0.000873278
0.000873169
0.000873086
0.000873022
0.000872972
0.000872933
0.000872902
0.000872877
0.000872858
0.000872844
0.000872833
0.000872826
0.000872823
0.000871674
0.000871677
0.000871681
0.000871687
0.000871696
0.000871706
0.00087172
0.000871737
0.000871756
0.000871781
0.00087181
0.000871845
0.00087189
0.000871945
0.000872018
0.000872116
0.000872253
0.000872446
0.000872736
0.000873182
0.00087388
0.000875069
0.000878053
0.000882539
0.000905544
0.000965774
0.00182759
0.012811
0.085963
0.1
0.0677103
0.00840031
0.00116613
0.00119699
0.00103447
0.00092468
0.000909264
0.000890158
0.000882796
0.0008785
0.000876097
0.000874587
0.000873619
0.000872974
0.000872536
0.000872229
0.00087201
0.000871851
0.000871732
0.000871642
0.000871573
0.000871519
0.000871477
0.000871444
0.000871419
0.000871398
0.000871383
0.000871372
0.000871365
0.000871362
0.000870256
0.00087026
0.000870264
0.000870271
0.000870281
0.000870293
0.000870308
0.000870326
0.000870349
0.000870375
0.000870407
0.000870446
0.000870494
0.000870555
0.000870634
0.000870739
0.000870883
0.000871086
0.000871387
0.000871847
0.000872562
0.000873829
0.000877146
0.000882089
0.00091173
0.000982794
0.00201872
0.0135204
0.0776966
0.0845878
0.0329529
0.00379662
0.00125627
0.00121104
0.00104105
0.0009295
0.000910906
0.000889862
0.000882147
0.000877692
0.000875066
0.000873438
0.000872378
0.000871674
0.000871195
0.000870861
0.000870623
0.00087045
0.000870322
0.000870226
0.000870152
0.000870095
0.000870051
0.000870016
0.000869989
0.000869968
0.000869952
0.000869941
0.000869933
0.00086993
0.000868866
0.00086887
0.000868875
0.000868883
0.000868893
0.000868907
0.000868924
0.000868944
0.000868969
0.000868998
0.000869032
0.000869074
0.000869127