/*--------------------------------*- C++ -*----------------------------------*\
  =========                 |
  \\      /  F ield         | OpenFOAM: The Open Source CFD Toolbox
   \\    /   O peration     | Website:  https://openfoam.org
    \\  /    A nd           | Version:  12
     \\/     M anipulation  |
\*---------------------------------------------------------------------------*/
FoamFile
{
    format      ascii;
    class       volScalarField;
    location    "440";
    object      omega;
}
// * * * * * * * * * * * * * * * * * * * * * * * * * * * * * * * * * * * * * //

dimensions      [0 0 -1 0 0 0 0];

internalField   nonuniform List<scalar> 
16227
(
9.34702
9.34704
9.34704
9.34707
9.34706
9.3471
9.34709
9.34708
9.34707
9.34709
9.34713
9.34715
9.3472
9.3472
9.3472
9.3472
9.3472
9.3472
9.3472
9.3472
9.3472
9.3472
9.3472
9.3472
9.3472
9.3472
9.3472
9.34722
9.34722
9.3472
9.34721
9.3472
9.3472
9.3472
9.34721
9.3472
9.3472
9.3472
9.3472
9.3472
9.3472
9.3472
9.3472
9.3472
9.3472
9.3472
9.3472
9.34719
9.34717
9.34717
9.34717
9.34716
9.3471
9.3471
9.34706
9.34705
9.34707
9.34705
9.34703
9.34702
8.71806
8.71808
8.71807
8.7181
8.71811
8.71814
8.71813
8.7181
8.71812
8.71813
8.71818
8.7182
8.71834
8.71839
8.71841
8.71841
8.7184
8.7184
8.7184
8.7184
8.71842
8.71843
8.71843
8.71843
8.71843
8.71843
8.71842
8.71842
8.7184
8.71835
8.7184
8.71842
8.71842
8.71842
8.71842
8.71841
8.7184
8.7184
8.7184
8.7184
8.7184
8.7184
8.7184
8.71839
8.71839
8.71838
8.71838
8.71838
8.71838
8.71837
8.71834
8.71829
8.71818
8.71816
8.71813
8.71811
8.71814
8.71807
8.71808
8.71806
8.1662
8.16622
8.16623
8.16624
8.16624
8.16632
8.16628
8.16627
8.16628
8.16628
8.16633
8.16634
8.16659
8.16664
8.16665
8.16666
8.16666
8.16666
8.16668
8.16662
8.16666
8.16666
8.16666
8.16666
8.16665
8.16665
8.16665
8.16665
8.16664
8.16657
8.16663
8.16664
8.16665
8.16665
8.16665
8.16665
8.16665
8.16665
8.16664
8.16664
8.16664
8.16665
8.16664
8.16663
8.16663
8.16664
8.16663
8.16663
8.16662
8.1666
8.16656
8.16638
8.1663
8.16629
8.16627
8.16627
8.1663
8.16621
8.16622
8.1662
7.67834
7.67836
7.67836
7.67838
7.67838
7.67844
7.67845
7.67841
7.67842
7.67841
7.67846
7.67851
7.67876
7.67883
7.67885
7.67886
7.67886
7.67887
7.67881
7.67868
7.67879
7.67882
7.67881
7.67881
7.67881
7.67881
7.6788
7.67879
7.67877
7.67868
7.67876
7.67877
7.67877
7.67877
7.67878
7.67879
7.67879
7.67879
7.6788
7.6788
7.67881
7.67881
7.6788
7.67881
7.67881
7.67881
7.67881
7.67881
7.67882
7.67879
7.67867
7.67849
7.67839
7.67841
7.67841
7.67843
7.6784
7.67833
7.67833
7.67831
7.24413
7.24415
7.24415
7.24417
7.24417
7.24423
7.24425
7.24419
7.2442
7.2442
7.24423
7.24429
7.24453
7.24465
7.24466
7.24465
7.24465
7.24462
7.24441
7.24433
7.24451
7.24457
7.24456
7.24454
7.24452
7.24451
7.24449
7.24449
7.24446
7.24436
7.24444
7.24447
7.24448
7.24448
7.24448
7.24449
7.24451
7.24452
7.24453
7.24454
7.24456
7.24458
7.24457
7.24458
7.24459
7.2446
7.2446
7.24461
7.24461
7.24453
7.2443
7.24419
7.24412
7.24415
7.24417
7.24422
7.24416
7.24409
7.24409
7.24407
6.85533
6.85535
6.85534
6.85536
6.85536
6.8554
6.85544
6.85539
6.85536
6.85535
6.85536
6.85539
6.8555
6.85577
6.85582
6.85582
6.85581
6.8557
6.85545
6.8554
6.8556
6.85564
6.85562
6.85558
6.85556
6.85554
6.85552
6.8555
6.85546
6.85536
6.85545
6.85547
6.85548
6.8555
6.85551
6.85553
6.85556
6.85558
6.8556
6.85562
6.85564
6.85567
6.85569
6.85571
6.85572
6.85574
6.85575
6.85576
6.85576
6.85563
6.8554
6.85529
6.85526
6.85531
6.85535
6.85534
6.85529
6.85523
6.85523
6.85522
6.50527
6.50529
6.50528
6.50529
6.50529
6.50533
6.50536
6.50534
6.50529
6.50527
6.50525
6.50524
6.50533
6.50557
6.50569
6.50569
6.50564
6.50534
6.5052
6.50518
6.50537
6.50539
6.50535
6.50531
6.50527
6.50523
6.5052
6.50517
6.50514
6.50502
6.50511
6.50514
6.50515
6.50518
6.50521
6.50524
6.50527
6.50532
6.50535
6.5054
6.50543
6.50547
6.50551
6.50553
6.50557
6.50559
6.50561
6.50563
6.50557
6.50532
6.5052
6.50512
6.50513
6.5052
6.50521
6.50521
6.50516
6.50511
6.50512
6.5051
6.18854
6.18854
6.18854
6.18855
6.18854
6.18856
6.18859
6.18858
6.18852
6.18847
6.18844
6.18838
6.18841
6.18852
6.18878
6.18884
6.18875
6.18839
6.18825
6.18821
6.1884
6.18841
6.18834
6.18828
6.18821
6.18817
6.18812
6.18808
6.18803
6.18791
6.18801
6.18805
6.18808
6.18811
6.18815
6.1882
6.18825
6.18831
6.18837
6.18843
6.1885
6.18854
6.1886
6.18865
6.1887
6.18873
6.18877
6.18878
6.18866
6.18842
6.18832
6.18828
6.18834
6.18838
6.18838
6.18838
6.18834
6.1883
6.18831
6.18829
5.90065
5.90065
5.90065
5.90064
5.90064
5.90065
5.90066
5.90064
5.90061
5.90054
5.90047
5.90039
5.90038
5.90044
5.90074
5.9008
5.90061
5.90026
5.90012
5.90006
5.90023
5.90021
5.90011
5.90002
5.89994
5.89987
5.89981
5.89976
5.8997
5.89957
5.89967
5.89972
5.89976
5.89981
5.89987
5.89994
5.90002
5.90011
5.90018
5.90026
5.90035
5.90044
5.90051
5.90057
5.90063
5.9007
5.90073
5.90069
5.90044
5.90034
5.90027
5.90032
5.90034
5.90039
5.9004
5.9004
5.90037
5.90033
5.90033
5.90033
5.63789
5.63789
5.63788
5.63788
5.63786
5.63786
5.63787
5.63783
5.63779
5.63774
5.63764
5.63753
5.6375
5.63756
5.63778
5.63782
5.63746
5.63721
5.63708
5.637
5.63713
5.63708
5.63696
5.63684
5.63673
5.63664
5.63656
5.6365
5.63643
5.6363
5.63641
5.63646
5.63651
5.63658
5.63666
5.63675
5.63686
5.63697
5.63709
5.6372
5.63731
5.63741
5.63752
5.63762
5.6377
5.63777
5.63782
5.63775
5.6375
5.63742
5.63742
5.63745
5.63748
5.63753
5.63754
5.63755
5.63752
5.63749
5.63749
5.63749
5.39716
5.39716
5.39715
5.39714
5.39712
5.39711
5.39711
5.39705
5.397
5.39693
5.39685
5.3967
5.39659
5.39658
5.39663
5.39677
5.39642
5.39619
5.39603
5.39592
5.39597
5.39592
5.39578
5.39562
5.39548
5.39536
5.39526
5.39518
5.39511
5.39497
5.39508
5.39515
5.39522
5.39531
5.39542
5.39555
5.39569
5.39583
5.39598
5.39613
5.39627
5.39641
5.39654
5.39666
5.39677
5.39685
5.39684
5.39673
5.3966
5.39655
5.39657
5.39661
5.39664
5.3967
5.39672
5.39673
5.39671
5.39667
5.39668
5.39668
5.17584
5.17584
5.17583
5.17581
5.17578
5.17577
5.17574
5.17569
5.17561
5.17553
5.17542
5.17528
5.17513
5.17504
5.17503
5.17511
5.17481
5.17456
5.17435
5.17418
5.17406
5.17408
5.17394
5.17375
5.17358
5.17343
5.1733
5.17321
5.17312
5.17298
5.1731
5.17318
5.17327
5.17339
5.17353
5.17369
5.17386
5.17405
5.17423
5.17442
5.17461
5.17478
5.17494
5.1751
5.17522
5.17529
5.17519
5.17517
5.17512
5.17509
5.17512
5.17518
5.17522
5.17527
5.17529
5.17531
5.17529
5.17526
5.17527
5.17527
4.97171
4.97171
4.97169
4.97167
4.97164
4.97161
4.97157
4.9715
4.97141
4.9713
4.97119
4.97102
4.97085
4.97067
4.97055
4.97045
4.97031
4.97009
4.96984
4.96961
4.9694
4.96941
4.96924
4.96901
4.96879
4.96861
4.96846
4.96834
4.96824
4.96811
4.96823
4.96833
4.96844
4.96859
4.96877
4.96898
4.96919
4.96942
4.96966
4.96989
4.97011
4.97033
4.97053
4.97071
4.97084
4.9709
4.97084
4.97087
4.97083
4.97082
4.97087
4.97092
4.97098
4.97103
4.97106
4.97107
4.97106
4.97104
4.97105
4.97105
4.78287
4.78287
4.78285
4.78282
4.78277
4.78274
4.78268
4.7826
4.78249
4.78237
4.78223
4.78204
4.78185
4.78164
4.78142
4.78127
4.78113
4.78088
4.78059
4.78031
4.78004
4.78
4.77978
4.7795
4.77924
4.77901
4.77883
4.77869
4.77858
4.77844
4.77857
4.77869
4.77883
4.77902
4.77924
4.77949
4.77977
4.78005
4.78033
4.78062
4.78089
4.78115
4.78138
4.78159
4.78168
4.78172
4.78178
4.78183
4.78182
4.78185
4.7819
4.78196
4.78202
4.78207
4.78211
4.78213
4.78212
4.78211
4.78211
4.78211
4.60768
4.60768
4.60765
4.60762
4.60757
4.60752
4.60746
4.60736
4.60724
4.60709
4.60693
4.60672
4.60649
4.60625
4.60601
4.6058
4.60562
4.60532
4.60497
4.60463
4.6043
4.6042
4.60392
4.60358
4.60327
4.603
4.60278
4.60261
4.60249
4.60235
4.6025
4.60264
4.60282
4.60305
4.60332
4.60363
4.60396
4.6043
4.60465
4.60499
4.60531
4.60562
4.60589
4.60608
4.60612
4.60625
4.60636
4.60645
4.60648
4.60652
4.6066
4.60667
4.60673
4.60678
4.60682
4.60684
4.60683
4.60683
4.60683
4.60683
4.44474
4.44474
4.44471
4.44467
4.44461
4.44456
4.44448
4.44436
4.44423
4.44407
4.44387
4.44363
4.44339
4.44311
4.44283
4.44258
4.44234
4.44199
4.44157
4.44117
4.44078
4.44055
4.44025
4.43986
4.43948
4.43916
4.4389
4.43871
4.43856
4.43842
4.43858
4.43875
4.43897
4.43926
4.43959
4.43997
4.44036
4.44078
4.44119
4.44159
4.44197
4.44232
4.44264
4.44283
4.44291
4.44307
4.44322
4.44329
4.44335
4.44344
4.44354
4.44361
4.44368
4.44374
4.44378
4.4438
4.44379
4.44379
4.4438
4.44379
4.29283
4.29282
4.2928
4.29275
4.29269
4.29262
4.29253
4.2924
4.29225
4.29207
4.29185
4.29158
4.29131
4.29099
4.29066
4.29037
4.29008
4.28966
4.28919
4.2887
4.28823
4.2878
4.28752
4.2871
4.28667
4.28628
4.28597
4.28574
4.28558
4.28544
4.28561
4.28582
4.28609
4.28643
4.28684
4.28728
4.28777
4.28825
4.28873
4.2892
4.28965
4.29005
4.29033
4.29053
4.29073
4.29095
4.29112
4.29121
4.29129
4.29141
4.29151
4.2916
4.29166
4.29173
4.29177
4.29178
4.29178
4.29177
4.29178
4.29178
4.15088
4.15087
4.15084
4.15079
4.15071
4.15064
4.15054
4.15039
4.15022
4.15002
4.14978
4.14949
4.14918
4.14883
4.14846
4.14811
4.14777
4.14731
4.14676
4.14618
4.14562
4.14506
4.14474
4.14426
4.14374
4.14329
4.14292
4.14265
4.14246
4.14232
4.14252
4.14277
4.14309
4.14351
4.14399
4.14453
4.14509
4.14567
4.14624
4.14678
4.14729
4.14771
4.14795
4.14825
4.14853
4.1488
4.14899
4.14911
4.14922
4.14935
4.14946
4.14954
4.14961
4.14967
4.14971
4.14973
4.14972
4.14972
4.14972
4.14973
4.01795
4.01794
4.0179
4.01785
4.01777
4.01769
4.01758
4.01742
4.01724
4.01701
4.01675
4.01644
4.01609
4.01571
4.01529
4.01489
4.01448
4.01395
4.01334
4.01268
4.01203
4.01139
4.01091
4.01037
4.00978
4.00924
4.0088
4.00848
4.00827
4.00814
4.00836
4.00865
4.00905
4.00954
4.01012
4.01076
4.01143
4.0121
4.01276
4.01338
4.01395
4.0144
4.0147
4.01507
4.01541
4.01569
4.01587
4.01602
4.01618
4.01632
4.01643
4.01652
4.01659
4.01665
4.01668
4.0167
4.01669
4.01669
4.01669
4.0167
3.89323
3.89322
3.89318
3.89312
3.89303
3.89294
3.89282
3.89265
3.89245
3.89221
3.89193
3.89159
3.89122
3.89079
3.89034
3.88986
3.88938
3.8888
3.88812
3.88739
3.88662
3.88586
3.88515
3.88461
3.88395
3.88332
3.8828
3.88242
3.88219
3.88205
3.8823
3.88265
3.88313
3.88373
3.88442
3.88517
3.88595
3.88673
3.88746
3.88813
3.88874
3.88924
3.88969
3.89012
3.89051
3.89081
3.891
3.89118
3.89136
3.89151
3.89162
3.89171
3.89177
3.89183
3.89186
3.89187
3.89187
3.89185
3.89186
3.89186
3.77598
3.77598
3.77594
3.77587
3.77578
3.77568
3.77555
3.77537
3.77516
3.7749
3.7746
3.77424
3.77383
3.77337
3.77286
3.7723
3.77174
3.77112
3.77039
3.76957
3.7687
3.76781
3.76695
3.76632
3.76555
3.76481
3.76419
3.76374
3.76346
3.76333
3.76361
3.76404
3.76462
3.76534
3.76616
3.76704
3.76795
3.76882
3.76965
3.77042
3.77104
3.77164
3.7722
3.77271
3.77312
3.7734
3.77363
3.77385
3.77404
3.77419
3.7743
3.77438
3.77444
3.77449
3.77452
3.77452
3.77451
3.7745
3.7745
3.77451
3.66557
3.66557
3.66553
3.66546
3.66537
3.66526
3.66512
3.66494
3.66471
3.66444
3.66412
3.66374
3.6633
3.66281
3.66224
3.66163
3.661
3.66033
3.65951
3.65859
3.65762
3.65662
3.65563
3.65482
3.65393
3.65306
3.65233
3.65179
3.65147
3.65134
3.65166
3.65217
3.65287
3.65373
3.6547
3.65573
3.65675
3.65775
3.65871
3.65958
3.6603
3.66099
3.66163
3.66217
3.66259
3.66289
3.66315
3.66339
3.66358
3.66372
3.66383
3.6639
3.66395
3.66399
3.664
3.66401
3.664
3.66398
3.66398
3.66398
3.56143
3.56143
3.56138
3.56131
3.56121
3.5611
3.56096
3.56077
3.56053
3.56025
3.55991
3.55951
3.55906
3.55853
3.55793
3.55726
3.55656
3.55581
3.55493
3.55392
3.55283
3.5517
3.55057
3.54951
3.5486
3.54756
3.54669
3.54606
3.54569
3.54555
3.54593
3.54657
3.54741
3.54843
3.54958
3.55078
3.55183
3.55296
3.554
3.55499
3.55588
3.55668
3.55737
3.55792
3.55834
3.55868
3.55897
3.55921
3.5594
3.55953
3.55963
3.55969
3.55973
3.55976
3.55976
3.55976
3.55974
3.55972
3.55971
3.55971
3.46304
3.46304
3.46299
3.46292
3.46282
3.46271
3.46256
3.46236
3.46212
3.46183
3.46148
3.46106
3.46058
3.46003
3.4594
3.45867
3.45788
3.45704
3.4561
3.45503
3.45384
3.45257
3.45129
3.45052
3.49725
3.49616
3.49519
3.49448
3.49407
3.49394
3.49436
3.49507
3.49601
3.49713
3.49838
3.49966
3.45333
3.454
3.4552
3.45632
3.45733
3.45821
3.45893
3.45947
3.4599
3.46028
3.46058
3.46082
3.46099
3.46112
3.4612
3.46124
3.46126
3.46128
3.46127
3.46125
3.46123
3.4612
3.46119
3.46119
3.36995
3.36994
3.3699
3.36983
3.36973
3.36961
3.36946
3.36926
3.36902
3.36872
3.36836
3.36793
3.36744
3.36686
3.3662
3.36543
3.36457
3.36363
3.36262
3.3615
3.36021
3.35882
3.35789
3.40205
3.39889
3.39775
3.39657
3.39569
3.3952
3.39506
3.39557
3.39643
3.39757
3.39892
3.40038
3.40181
3.40508
3.36107
3.36189
3.36312
3.36421
3.36513
3.36586
3.36641
3.36686
3.36724
3.36754
3.36776
3.36791
3.36802
3.36807
3.3681
3.3681
3.3681
3.36807
3.36804
3.36801
3.36797
3.36795
3.36795
3.28174
3.28173
3.28169
3.28162
3.28153
3.28141
3.28126
3.28106
3.28081
3.28051
3.28015
3.27971
3.27921
3.27862
3.27793
3.27714
3.27623
3.27522
3.27413
3.27293
3.27156
3.27007
3.26946
3.3092
3.30597
3.32723
3.3259
3.32489
3.32434
3.32424
3.32486
3.32587
3.32718
3.32871
3.33034
3.30982
3.31273
3.27317
3.27367
3.27498
3.27611
3.27703
3.27775
3.27832
3.27879
3.27916
3.27943
3.27962
3.27975
3.27982
3.27985
3.27985
3.27983
3.2798
3.27976
3.27972
3.27967
3.27962
3.2796
3.27959
3.19805
3.19804
3.198
3.19793
3.19784
3.19772
3.19758
3.19738
3.19713
3.19683
3.19648
3.19604
3.19553
3.19493
3.19423
3.19342
3.19248
3.19142
3.19024
3.18895
3.18752
3.186
3.18577
3.22136
3.21804
3.23731
3.23573
3.23457
3.23401
3.23406
3.23482
3.23603
3.23759
3.23937
3.24113
3.22332
3.22554
3.1901
3.19025
3.19155
3.19267
3.19356
3.19428
3.19485
3.19531
3.19564
3.19588
3.19603
3.19612
3.19615
3.19615
3.19612
3.19607
3.19602
3.19596
3.1959
3.19584
3.19578
3.19575
3.19575
3.11854
3.11853
3.11849
3.11843
3.11834
3.11823
3.11808
3.11789
3.11765
3.11736
3.11701
3.11657
3.11607
3.11547
3.11477
3.11395
3.113
3.11191
3.11067
3.1093
3.10781
3.10632
3.10652
3.13835
3.13489
3.15251
3.15062
3.14953
3.14919
3.14956
3.15057
3.15196
3.15366
3.15555
3.15752
3.14164
3.14349
3.11165
3.11133
3.11254
3.11359
3.11445
3.11515
3.11569
3.1161
3.11638
3.11656
3.11666
3.11669
3.11668
3.11664
3.11657
3.11649
3.11642
3.11634
3.11626
3.11618
3.11611
3.11608
3.11607
3.04291
3.04291
3.04287
3.04281
3.04272
3.04262
3.04248
3.0423
3.04207
3.04179
3.04144
3.04102
3.04052
3.03993
3.03924
3.03842
3.03748
3.03639
3.03514
3.03373
3.03219
3.03078
3.03147
3.05991
3.0566
3.07308
3.07071
3.07062
3.07147
3.07298
3.07442
3.07555
3.07671
3.0781
3.07986
3.0652
3.06654
3.03762
3.03668
3.03768
3.03864
3.03944
3.04007
3.04053
3.04085
3.04105
3.04116
3.04119
3.04117
3.04111
3.04102
3.04091
3.0408
3.04069
3.04059
3.04048
3.04039
3.04032
3.04027
3.04026
2.97088
2.97089
2.97085
2.9708
2.97072
2.97062
2.97049
2.97032
2.9701
2.96983
2.96951
2.9691
2.96862
2.96805
2.96738
2.96658
2.96566
2.96459
2.96336
2.96198
2.96047
2.95921
2.96039
2.98586
2.98337
2.99897
2.99748
3.00065
3.0066
3.01276
3.01498
3.01315
3.0104
3.00899
3.00893
2.99435
2.99465
2.96793
2.96621
2.96687
2.96763
2.96827
2.96875
2.96908
2.96929
2.96939
2.96941
2.96936
2.96927
2.96915
2.96901
2.96886
2.9687
2.96857
2.96843
2.96831
2.9682
2.96811
2.96806
2.96805
2.90221
2.90222
2.90219
2.90214
2.90207
2.90198
2.90186
2.90171
2.90151
2.90126
2.90095
2.90056
2.90011
2.89957
2.89893
2.89817
2.89728
2.89626
2.89509
2.89379
2.89241
2.89141
2.89306
2.91602
2.91544
2.93111
2.93381
2.94921
2.97816
3.00922
3.01214
2.9888
2.96557
2.95231
2.94637
2.92994
2.9279
2.90255
2.89978
2.89988
2.90029
2.90067
2.90093
2.90109
2.90115
2.90113
2.90104
2.90091
2.90074
2.90055
2.90035
2.90015
2.89996
2.89979
2.89962
2.89948
2.89935
2.89925
2.89919
2.89917
2.83667
2.83668
2.83665
2.83661
2.83655
2.83647
2.83637
2.83623
2.83605
2.83582
2.83554
2.83519
2.83476
2.83426
2.83366
2.83295
2.83212
2.83117
2.8301
2.82892
2.82776
2.82712
2.82935
2.8504
2.85285
2.87069
2.88761
2.94901
3.11469
3.36536
3.34761
3.11788
2.97402
2.91662
2.89462
2.87257
2.86642
2.84154
2.83723
2.83646
2.83637
2.83639
2.83639
2.83633
2.83621
2.83604
2.83583
2.8356
2.83534
2.83508
2.83482
2.83457
2.83433
2.83412
2.83393
2.83377
2.83362
2.83351
2.83344
2.83342
2.77405
2.77406
2.77404
2.77401
2.77395
2.77389
2.7738
2.77368
2.77352
2.77332
2.77307
2.77275
2.77237
2.77191
2.77136
2.77071
2.76996
2.7691
2.76815
2.76715
2.76626
2.76603
2.76885
2.78896
2.79562
2.81972
2.8741
3.11816
4.01895
8.37912
7.64774
4.25605
3.13563
2.91585
2.85566
2.82276
2.81047
2.7846
2.7783
2.77635
2.77563
2.7752
2.77486
2.77454
2.77422
2.77389
2.77355
2.7732
2.77285
2.77252
2.77219
2.77189
2.77161
2.77136
2.77114
2.77095
2.77079
2.77067
2.77059
2.77057
2.71416
2.71417
2.71415
2.71413
2.71409
2.71404
2.71397
2.71387
2.71374
2.71356
2.71334
2.71307
2.71273
2.71232
2.71183
2.71126
2.71059
2.70984
2.70903
2.70823
2.70763
2.7078
2.7112
2.73107
2.74258
2.77965
2.90771
3.65973
12.0182
14.8452
3.67056
2.95998
2.83006
2.77935
2.75951
2.73136
2.72268
2.71928
2.71779
2.71684
2.71611
2.7155
2.71495
2.71444
2.71396
2.7135
2.71306
2.71264
2.71226
2.7119
2.71158
2.7113
2.71106
2.71085
2.71067
2.71054
2.71046
2.71043
2.65681
2.65683
2.65682
2.65681
2.65678
2.65675
2.65669
2.65662
2.65651
2.65637
2.65619
2.65595
2.65566
2.65531
2.65489
2.6544
2.65383
2.6532
2.65254
2.65193
2.65161
2.6521
2.65596
2.67581
2.69203
2.7458
2.96896
4.98255
60.0295
182.644
20.3291
4.6586
3.03936
2.81434
2.73999
2.71275
2.68127
2.67003
2.66502
2.66269
2.66114
2.65998
2.65906
2.65827
2.65757
2.65694
2.65636
2.65582
2.65533
2.65488
2.65447
2.65411
2.6538
2.65353
2.6533
2.6531
2.65296
2.65287
2.65284
2.60187
2.60189
2.60189
2.60188
2.60187
2.60185
2.60181
2.60176
2.60168
2.60157
2.60143
2.60124
2.60101
2.60072
2.60037
2.59996
2.59949
2.59898
2.59846
2.59803
2.59792
2.59869
2.60287
2.62249
2.64234
2.70724
2.99012
5.56773
31.7007
15.0489
9.31631
10.0701
5.46458
3.12581
2.80373
2.70156
2.66894
2.63354
2.61982
2.61321
2.61001
2.60784
2.60625
2.605
2.60396
2.60307
2.60229
2.60159
2.60096
2.60039
2.59988
2.59942
2.59902
2.59867
2.59837
2.59812
2.59792
2.59776
2.59766
2.59764
2.54916
2.54919
2.5492
2.5492
2.5492
2.54919
2.54918
2.54915
2.5491
2.54903
2.54893
2.54879
2.54861
2.54838
2.5481
2.54777
2.5474
2.54699
2.54661
2.54632
2.54637
2.54738
2.55179
2.57082
2.59296
2.66095
2.9726
5.6193
29.9484
13.7116
6.19083
5.43611
5.82172
3.18508
2.79466
2.66155
2.62697
2.58738
2.57153
2.56352
2.55949
2.55671
2.55468
2.55312
2.55184
2.55077
2.54984
2.54903
2.54831
2.54767
2.5471
2.5466
2.54615
2.54578
2.54545
2.54518
2.54496
2.5448
2.54469
2.54466
2.49857
2.4986
2.49861
2.49862
2.49863
2.49865
2.49866
2.49866
2.49864
2.4986
2.49854
2.49844
2.49832
2.49815
2.49794
2.49768
2.49738
2.49705
2.49678
2.49664
2.4969
2.49813
2.50285
2.52126
2.54583
2.62288
3.04105
11.7826
14.6475
5.02256
4.73279
3.28273
5.73832
3.22256
2.78789
2.62027
2.58657
2.54227
2.52481
2.51568
2.51087
2.50753
2.50511
2.50324
2.50174
2.5005
2.49944
2.49852
2.49772
2.49701
2.49639
2.49585
2.49537
2.49497
2.49462
2.49434
2.49411
2.49393
2.49382
2.49379
2.44996
2.44999
2.45001
2.45003
2.45006
2.45009
2.45012
2.45014
2.45016
2.45016
2.45014
2.45009
2.45001
2.44989
2.44973
2.44951
2.44928
2.44907
2.44894
2.44897
2.4494
2.45084
2.45602
2.47412
2.50533
2.6071
3.52737
22.1665
3.56919
3.40621
2.98943
3.73568
5.27967
3.22009
2.78108
2.57955
2.54701
2.49794
2.47936
2.46944
2.46393
2.4601
2.45733
2.45521
2.45351
2.45212
2.45094
2.44993
2.44906
2.4483
2.44764
2.44705
2.44655
2.44613
2.44576
2.44546
2.44522
2.44504
2.44492
2.44489
2.40321
2.40325
2.40328
2.40331
2.40335
2.4034
2.40345
2.4035
2.40354
2.40358
2.4036
2.40359
2.40355
2.40345
2.40333
2.40322
2.40311
2.40302
2.403
2.40316
2.40373
2.40537
2.41113
2.42931
2.4722
2.60325
4.4436
21.408
2.89886
2.41869
2.52649
4.66984
4.71905
3.17302
2.76099
2.54184
2.50724
2.45413
2.43493
2.42454
2.41842
2.41421
2.41117
2.40886
2.40702
2.4055
2.40423
2.40315
2.40222
2.40141
2.40071
2.4001
2.39958
2.39913
2.39875
2.39844
2.39819
2.39801
2.39789
2.39785
2.35822
2.35827
2.3583
2.35834
2.35839
2.35846
2.35854
2.35861
2.35868
2.35875
2.3588
2.35882
2.35881
2.35877
2.35875
2.35872
2.3587
2.35871
2.35878
2.35905
2.35973
2.36154
2.36788
2.38634
2.44137
2.59389
4.96063
18.5449
2.75122
1.94873
2.83112
4.85067
4.24174
3.09611
2.72062
2.50657
2.46648
2.41114
2.3915
2.38086
2.37431
2.36986
2.36657
2.36408
2.36213
2.36053
2.35919
2.35805
2.35708
2.35623
2.35551
2.35488
2.35433
2.35387
2.35349
2.35317
2.35292
2.35272
2.3526
2.35257
2.3149
2.31495
2.31498
2.31503
2.3151
2.31519
2.31528
2.31538
2.31548
2.31557
2.31562
2.31567
2.31573
2.31578
2.31583
2.31588
2.31593
2.31602
2.31618
2.31653
2.31726
2.3192
2.32611
2.34472
2.40846
2.57244
5.15171
15.6149
3.39557
1.81813
2.93319
4.71866
3.87962
3.00215
2.66833
2.47176
2.42449
2.3689
2.3491
2.33841
2.33147
2.32686
2.32342
2.32079
2.31872
2.31706
2.3157
2.31454
2.31354
2.31267
2.31193
2.31128
2.31073
2.31026
2.30987
2.30955
2.30929
2.3091
2.30898
2.30894
2.27314
2.27319
2.27323
2.27329
2.27337
2.27347
2.27359
2.27371
2.27383
2.27393
2.27402
2.27413
2.27425
2.27436
2.27447
2.27458
2.2747
2.27486
2.27508
2.27548
2.27625
2.27831
2.28564
2.30417
2.37321
2.53991
5.25276
13.2129
3.15707
1.62359
2.99234
4.51796
3.59691
2.89951
2.62003
2.43553
2.38192
2.32753
2.30765
2.29704
2.2899
2.28513
2.2816
2.27893
2.27679
2.27508
2.27368
2.27252
2.27151
2.27064
2.26988
2.26923
2.26868
2.26821
2.26782
2.26749
2.26723
2.26704
2.26692
2.26688
2.23286
2.23292
2.23296
2.23303
2.23313
2.23324
2.23337
2.2335
2.23364
2.23377
2.23392
2.23408
2.23425
2.23441
2.23458
2.23474
2.23493
2.23514
2.23541
2.23583
2.23667
2.2388
2.2464
2.26469
2.33696
2.49959
5.33354
11.2369
2.44548
1.56353
3.0355
4.31306
3.36418
2.79648
2.58173
2.39722
2.33951
2.28717
2.26716
2.25668
2.24952
2.24468
2.24104
2.23836
2.23621
2.23447
2.23306
2.23189
2.2309
2.23004
2.22929
2.22864
2.22809
2.22763
2.22723
2.22691
2.22666
2.22646
2.22634
2.22631
2.19398
2.19404
2.1941
2.19417
2.19428
2.1944
2.19453
2.19468
2.19484
2.19503
2.19522
2.19543
2.19563
2.19585
2.19606
2.19629
2.19652
2.19679
2.1971
2.19757
2.19844
2.2006
2.20843
2.22639
2.30107
2.45568
5.46927
9.57476
2.29787
1.60306
3.08028
4.10834
3.17094
2.70013
2.54929
2.35725
2.29795
2.24789
2.22765
2.21733
2.21024
2.20544
2.20177
2.19905
2.19688
2.19515
2.19377
2.19262
2.19164
2.19081
2.19007
2.18944
2.18889
2.18844
2.18805
2.18773
2.18748
2.18729
2.18717
2.18714
2.15642
2.15649
2.15655
2.15664
2.15675
2.15688
2.15702
2.1572
2.1574
2.15762
2.15785
2.15809
2.15834
2.15859
2.15886
2.15913
2.15942
2.15972
2.16006
2.1606
2.1615
2.16368
2.17174
2.18939
2.26631
2.41222
5.66235
8.22877
2.27459
1.65415
3.1432
3.90398
3.00943
2.6134
2.51678
2.3165
2.25772
2.20975
2.18916
2.179
2.17206
2.16731
2.16369
2.16099
2.15884
2.15713
2.15574
2.15463
2.15367
2.15286
2.15216
2.15155
2.15102
2.15057
2.15019
2.14988
2.14964
2.14945
2.14934
2.14931
2.12013
2.1202
2.12027
2.12036
2.12047
2.12061
2.12078
2.12099
2.12121
2.12146
2.12172
2.122
2.12229
2.12259
2.1229
2.12322
2.12354
2.12387
2.12428
2.12488
2.1258
2.12803
2.13637
2.15377
2.23298
2.37172
5.8626
7.29296
2.22925
1.69678
3.22341
3.71142
2.87422
2.53633
2.48062
2.27588
2.21911
2.17282
2.15171
2.1417
2.13498
2.13029
2.12674
2.12409
2.122
2.12034
2.11897
2.11785
2.11694
2.11616
2.11548
2.1149
2.1144
2.11397
2.1136
2.1133
2.11306
2.11288
2.11277
2.11274
2.08503
2.0851
2.08517
2.08526
2.08538
2.08554
2.08574
2.08596
2.08622
2.08649
2.08678
2.08709
2.08742
2.08776
2.08812
2.08848
2.08882
2.08923
2.08971
2.09036
2.09128
2.09361
2.10231
2.11954
2.20108
2.33497
5.97647
6.8214
2.17921
1.71169
3.2969
3.53667
2.75812
2.46745
2.44002
2.23625
2.18228
2.13715
2.11533
2.10544
2.09896
2.09435
2.09089
2.08832
2.08629
2.08469
2.08337
2.08228
2.08138
2.08064
2.07999
2.07944
2.07897
2.07856
2.07821
2.07792
2.07769
2.07752
2.07741
2.07739
2.05106
2.05114
2.0512
2.0513
2.05144
2.05162
2.05183
2.05207
2.05234
2.05264
2.05296
2.05331
2.05367
2.05405
2.05445
2.05485
2.05525
2.05573
2.05626
2.05696
2.05791
2.06037
2.06954
2.08668
2.17048
2.30101
5.9164
6.64307
2.14398
1.67085
3.35691
3.37494
2.65449
2.40453
2.39577
2.19837
2.14738
2.10284
2.08006
2.07024
2.06402
2.05947
2.05612
2.05363
2.05168
2.05014
2.04889
2.04785
2.04697
2.04624
2.04564
2.04512
2.04467
2.04429
2.04396
2.04369
2.04347
2.04331
2.0432
2.04318
2.01817
2.01824
2.01831
2.01842
2.01857
2.01876
2.01899
2.01925
2.01954
2.01987
2.02022
2.02059
2.02099
2.02141
2.02185
2.02228
2.02275
2.02329
2.02388
2.02465
2.02565
2.02827
2.03799
2.05513
2.14083
2.26926
5.70708
6.45132
2.12735
1.5795
3.42463
3.22873
2.56077
2.34679
2.34991
2.16316
2.11471
2.06998
2.04594
2.03609
2.03012
2.02563
2.02241
2.02
2.01813
2.01667
2.01547
2.01449
2.01367
2.01296
2.01237
2.01189
2.01147
2.01111
2.01081
2.01056
2.01035
2.01019
2.01009
2.01007
1.9863
1.98638
1.98645
1.98657
1.98673
1.98693
1.98717
1.98745
1.98776
1.98811
1.98848
1.98889
1.98932
1.98978
1.99025
1.99074
1.99128
1.99188
1.99254
1.99338
1.99444
1.99728
2.00754
2.02476
2.11211
2.23884
5.44149
6.11594
2.11949
1.49461
3.36056
3.16807
2.50758
2.3017
2.30846
2.13081
2.08463
2.03867
2.01299
2.00301
1.99727
1.99283
1.98972
1.9874
1.98561
1.98422
1.9831
1.98217
1.9814
1.98074
1.98017
1.9797
1.97931
1.97898
1.9787
1.97846
1.97827
1.97812
1.97803
1.97801
1.9554
1.95549
1.95557
1.95569
1.95586
1.95607
1.95632
1.95661
1.95695
1.95731
1.95771
1.95815
1.95861
1.9591
1.9596
1.96016
1.96076
1.96143
1.96216
1.9631
1.96423
1.96734
1.97812
1.99542
2.08358
2.20959
5.16174
5.84664
2.10959
1.46913
3.11619
3.19654
2.57525
2.35021
2.30654
2.0943
2.05804
2.00894
1.98116
1.97101
1.96543
1.96103
1.95804
1.9558
1.9541
1.95278
1.95172
1.95085
1.95013
1.94951
1.94898
1.94853
1.94815
1.94785
1.94759
1.94737
1.94719
1.94705
1.94696
1.94695
1.92544
1.92553
1.92561
1.92574
1.92591
1.92614
1.9264
1.92671
1.92705
1.92744
1.92786
1.92832
1.92881
1.92932
1.92988
1.9305
1.93116
1.9319
1.93271
1.93375
1.93499
1.93838
1.94955
1.967
2.05555
2.18317
4.86731
5.79853
2.07492
1.58073
2.86974
3.25005
2.68976
2.47671
2.43341
2.08156
2.03689
1.98056
1.9505
1.94013
1.93459
1.93024
1.92734
1.92518
1.92355
1.92231
1.92131
1.92049
1.91982
1.91924
1.91875
1.91833
1.91797
1.91767
1.91743
1.91723
1.91707
1.91694
1.91686
1.91685
1.89637
1.89645
1.89654
1.89668
1.89686
1.89709
1.89736
1.89768
1.89804
1.89845
1.89889
1.89937
1.89989
1.90043
1.90104
1.9017
1.90243
1.90324
1.90414
1.90527
1.90666
1.91032
1.92173
1.93933
2.02749
2.16101
4.55606
5.8548
2.88555
1.96451
2.8179
3.31572
2.81977
2.55375
2.56759
2.25733
2.01695
1.95332
1.92109
1.91036
1.90474
1.90044
1.89761
1.89551
1.89396
1.89277
1.89183
1.89107
1.89043
1.8899
1.88944
1.88905
1.88871
1.88842
1.88819
1.88801
1.88786
1.88774
1.88767
1.88766
1.86814
1.86823
1.86832
1.86845
1.86864
1.86888
1.86916
1.86949
1.86987
1.87029
1.87075
1.87125
1.87178
1.87237
1.87302
1.87373
1.87452
1.87539
1.87639
1.87761
1.87917
1.88308
1.89453
1.91222
1.99963
2.14304
4.22432
5.91234
3.85766
2.68582
3.03375
3.35194
2.95489
2.60087
2.60989
2.50279
1.99787
1.92693
1.89289
1.88167
1.87585
1.87161
1.86881
1.86677
1.86528
1.86415
1.86325
1.86254
1.86194
1.86144
1.86101
1.86065
1.86033
1.86007
1.85984
1.85966
1.85953
1.85942
1.85936
1.85935
1.84071
1.84081
1.8409
1.84104
1.84123
1.84147
1.84177
1.8421
1.84249
1.84292
1.8434
1.84392
1.84447
1.8451
1.84579
1.84654
1.84738
1.84832
1.84942
1.85072
1.85247
1.85658
1.86796
1.8855
1.97177
2.16287
4.30609
6.08341
4.83488
3.57315
3.33672
3.33754
3.01039
2.64072
2.61392
2.70929
2.00508
1.90114
1.86586
1.85401
1.8479
1.8437
1.84092
1.83893
1.83748
1.8364
1.83555
1.83487
1.83431
1.83384
1.83344
1.8331
1.8328
1.83256
1.83234
1.83217
1.83203
1.83194
1.83188
1.83189
1.81406
1.81416
1.81425
1.8144
1.81459
1.81484
1.81514
1.81548
1.81588
1.81632
1.81681
1.81733
1.81792
1.81858
1.8193
1.82009
1.82099
1.82198
1.82317
1.82454
1.82648
1.83072
1.84195
1.85747
1.94155
2.15287
4.01318
5.70439
4.86734
3.71112
3.2584
3.20647
3.02286
2.69106
2.60145
2.80804
2.01843
1.87989
1.84006
1.82731
1.82088
1.81669
1.8139
1.81195
1.81054
1.80949
1.80868
1.80804
1.80751
1.80706
1.80669
1.80636
1.80609
1.80585
1.80565
1.80549
1.80536
1.80527
1.80522
1.80523
1.78815
1.78825
1.78835
1.78849
1.78869
1.78894
1.78924
1.78959
1.79
1.79045
1.79095
1.79148
1.79209
1.79277
1.79352
1.79435
1.79529
1.79632
1.79761
1.79902
1.80113
1.80544
1.81639
1.83234
1.92667
2.34123
4.14761
5.03376
4.39514
3.45316
3.02336
2.98884
2.9041
2.69465
2.56847
2.72035
2.07983
1.86367
1.81551
1.80154
1.79474
1.79054
1.78774
1.78581
1.78442
1.7834
1.78262
1.782
1.7815
1.78108
1.78072
1.78041
1.78015
1.77993
1.77974
1.77959
1.77946
1.77937
1.77933
1.77934
1.76295
1.76305
1.76314
1.76329
1.76349
1.76374
1.76405
1.76441
1.76481
1.76527
1.76577
1.76632
1.76695
1.76765
1.76842
1.76927
1.77025
1.77133
1.77269
1.77413
1.77636
1.7807
1.79129
1.80736
1.89915
2.31155
3.91859
4.63561
4.03765
3.15449
2.73342
2.75546
2.81528
2.6979
2.53899
2.71377
2.13649
1.85242
1.79225
1.77664
1.76944
1.76521
1.76238
1.76046
1.75909
1.7581
1.75733
1.75674
1.75625
1.75585
1.75551
1.75522
1.75497
1.75476
1.75458
1.75443
1.75431
1.75422
1.75418
1.75419
1.73842
1.73852
1.73862
1.73877
1.73897
1.73922
1.73953
1.73989
1.7403
1.74076
1.74126
1.74183
1.74247
1.74317
1.74397
1.74484
1.74585
1.74695
1.74838
1.74983
1.75214
1.75647
1.76671
1.78263
1.87218
2.28034
3.71532
4.29749
3.72744
2.8976
2.49148
2.54852
2.71921
2.69
2.51031
2.69918
2.18666
1.84553
1.7703
1.75255
1.74494
1.74065
1.7378
1.73589
1.73452
1.73354
1.73279
1.73221
1.73174
1.73135
1.73102
1.73074
1.7305
1.7303
1.73013
1.72999
1.72987
1.72979
1.72974
1.72976
1.71455
1.71465
1.71475
1.71489
1.71509
1.71535
1.71566
1.71601
1.71642
1.71687
1.71739
1.71796
1.71861
1.71932
1.72013
1.72101
1.72205
1.72316
1.72465
1.7261
1.72843
1.73274
1.74266
1.75834
1.84579
2.24825
3.53582
4.0097
3.45936
2.67796
2.28977
2.36747
2.62251
2.67393
2.48176
2.67936
2.22979
1.84205
1.74964
1.72923
1.72119
1.71683
1.71395
1.71204
1.71067
1.7097
1.70896
1.70839
1.70792
1.70755
1.70723
1.70696
1.70672
1.70653
1.70636
1.70623
1.70612
1.70604
1.70599
1.706
1.69129
1.6914
1.69149
1.69164
1.69184
1.69209
1.6924
1.69276
1.69316
1.69361
1.69413
1.69471
1.69536
1.69607
1.69689
1.69777
1.69882
1.69994
1.70147
1.70293
1.70525
1.70949
1.71914
1.73459
1.82003
2.21595
3.37808
3.76467
3.22823
2.4907
2.12123
2.20981
2.52879
2.65212
2.45299
2.6559
2.2656
1.84077
1.73015
1.70665
1.69814
1.69371
1.69079
1.68888
1.68751
1.68654
1.68581
1.68524
1.68479
1.68441
1.6841
1.68384
1.68361
1.68342
1.68326
1.68312
1.68302
1.68294