/*--------------------------------*- C++ -*----------------------------------*\
  =========                 |
  \\      /  F ield         | OpenFOAM: The Open Source CFD Toolbox
   \\    /   O peration     | Website:  https://openfoam.org
    \\  /    A nd           | Version:  12
     \\/     M anipulation  |
\*---------------------------------------------------------------------------*/
FoamFile
{
    format      ascii;
    class       volScalarField;
    location    "440";
    object      p;
}
// * * * * * * * * * * * * * * * * * * * * * * * * * * * * * * * * * * * * * //

dimensions      [0 2 -2 0 0 0 0];

internalField   nonuniform List<scalar> 
16227
(
0.0501722
0.0503183
0.0506096
0.0510448
0.0516221
0.0523387
0.0531913
0.0541756
0.0552861
0.0565167
0.0578601
0.059308
0.0608508
0.0624783
0.0641787
0.0659393
0.0677461
0.0695842
0.0714378
0.0732905
0.0751253
0.076925
0.0786725
0.0803511
0.0819449
0.0834392
0.0848207
0.0860781
0.087202
0.0881856
0.0890242
0.0897159
0.0902612
0.0906631
0.0909269
0.0910597
0.0910704
0.0909694
0.0907683
0.090479
0.0901144
0.0896872
0.0892101
0.0886953
0.0881547
0.0875993
0.0870395
0.0864848
0.0859436
0.0854238
0.084932
0.0844742
0.0840556
0.0836805
0.0833526
0.083075
0.0828501
0.0826799
0.0825656
0.0825081
0.050066
0.0502125
0.0505047
0.0509414
0.0515208
0.05224
0.0530958
0.0540839
0.055199
0.0564349
0.0577843
0.0592392
0.0607898
0.062426
0.0641358
0.0659067
0.0677244
0.0695741
0.0714399
0.073305
0.0751524
0.0769647
0.0787244
0.0804146
0.0820192
0.0835231
0.0849129
0.086177
0.0873059
0.0882926
0.0891325
0.0898236
0.0903666
0.0907645
0.0910227
0.0911487
0.0911517
0.0910422
0.0908318
0.0905332
0.0901591
0.0897224
0.0892361
0.0887126
0.0881638
0.0876008
0.087034
0.086473
0.0859262
0.0854013
0.0849052
0.0844436
0.0840217
0.0836438
0.0833138
0.0830344
0.0828082
0.082637
0.082522
0.0824643
0.0498302
0.0499777
0.050272
0.050712
0.0512958
0.0520208
0.0528837
0.0538804
0.0550056
0.0562531
0.057616
0.0590862
0.0606543
0.0623096
0.0640403
0.0658338
0.0676759
0.0695514
0.0714439
0.0733366
0.0752121
0.0770522
0.078839
0.080555
0.0821835
0.0837089
0.0851171
0.086396
0.0875361
0.0885299
0.0893728
0.0900626
0.0906003
0.0909893
0.0912354
0.0913464
0.0913321
0.0912036
0.090973
0.0906535
0.0902583
0.0898008
0.0892943
0.0887515
0.0881845
0.0876046
0.0870224
0.0864474
0.0858881
0.0853522
0.0848464
0.0843764
0.0839473
0.0835636
0.0832287
0.0829455
0.0827163
0.0825429
0.0824265
0.0823679
0.0494335
0.0495827
0.0498806
0.0503262
0.0509175
0.0516521
0.0525269
0.0535378
0.0546799
0.0559471
0.0573326
0.0588288
0.0604259
0.0621133
0.0638793
0.065711
0.0675942
0.069513
0.0714507
0.0733901
0.0753132
0.0772005
0.0790334
0.0807932
0.0824623
0.0840239
0.0854633
0.0867676
0.0879263
0.0889321
0.0897796
0.0904671
0.0909957
0.0913694
0.0915945
0.0916799
0.091636
0.091475
0.09121
0.0908549
0.0904239
0.0899311
0.0893904
0.0888149
0.0882173
0.087609
0.0870009
0.0864024
0.0858223
0.085268
0.084746
0.0842621
0.0838211
0.0834277
0.0830849
0.0827952
0.082561
0.0823839
0.0822651
0.0822053
0.0488793
0.049031
0.0493337
0.0497868
0.0503884
0.0511361
0.0520271
0.0530575
0.0542228
0.0555171
0.0569338
0.0584656
0.0601028
0.0618348
0.0636498
0.0655348
0.0674751
0.0694544
0.0714555
0.0734612
0.0754514
0.0774056
0.0793036
0.0811257
0.0828524
0.0844658
0.0859497
0.08729
0.0884755
0.0894982
0.0903526
0.0910367
0.0915523
0.0919041
0.0920995
0.0921483
0.0920624
0.0918554
0.0915417
0.0911364
0.090655
0.0901125
0.0895238
0.0889027
0.0882622
0.0876144
0.0869702
0.0863393
0.0857303
0.0851505
0.0846063
0.0841031
0.0836462
0.0832396
0.0828857
0.0825873
0.0823464
0.0821643
0.0820421
0.0819807
0.0481733
0.0483278
0.0486366
0.0490989
0.0497129
0.0504768
0.0513877
0.0524423
0.0536363
0.0549642
0.0564197
0.0579959
0.0596834
0.0614716
0.0633487
0.0653014
0.0673145
0.069371
0.0714541
0.0735451
0.0756222
0.077663
0.0796458
0.081549
0.0833513
0.0850326
0.0865749
0.0879626
0.0891833
0.0902283
0.0910917
0.0917714
0.0922699
0.0925929
0.0927492
0.0927503
0.0926097
0.0923427
0.0919657
0.0914954
0.0909489
0.0903425
0.0896921
0.0890126
0.0883176
0.0876196
0.0869298
0.0862579
0.0856125
0.0850007
0.0844286
0.0839018
0.0834253
0.083002
0.0826347
0.0823255
0.0820763
0.0818881
0.0817619
0.0816985
0.0473137
0.0474716
0.0477873
0.0482603
0.0488889
0.0496716
0.0506059
0.0516889
0.0529167
0.0542845
0.0557861
0.0574149
0.0591632
0.0610193
0.0629716
0.0650065
0.0671084
0.0692601
0.0714445
0.0736411
0.075826
0.077975
0.080064
0.0820692
0.0839665
0.0857335
0.0873495
0.0887971
0.0900622
0.0911351
0.0920092
0.0926828
0.0931591
0.0934451
0.0935515
0.0934917
0.0932818
0.0929391
0.0924826
0.0919309
0.0913032
0.0906175
0.089891
0.0891397
0.088378
0.0876189
0.0868738
0.0861525
0.0854635
0.0848134
0.0842082
0.0836537
0.0831541
0.0827114
0.0823283
0.0820066
0.0817477
0.0815525
0.0814218
0.0813561
0.0462954
0.0464572
0.0467807
0.0472656
0.0479107
0.0487147
0.0496756
0.0507909
0.0520574
0.0534708
0.0550258
0.0567159
0.0585344
0.0604701
0.0625113
0.0646438
0.0668513
0.0691178
0.0714242
0.0737483
0.0760642
0.0783453
0.0805646
0.0826952
0.0847098
0.0865825
0.0882897
0.0898112
0.0911308
0.0922375
0.093124
0.0937888
0.0942362
0.0944752
0.0945184
0.0943823
0.0940857
0.0936491
0.0930943
0.0924428
0.091716
0.0909339
0.0901155
0.089278
0.0884367
0.0876052
0.0867949
0.0860158
0.0852759
0.0845814
0.0839385
0.0833528
0.0828266
0.0823621
0.0819614
0.0816258
0.0813562
0.0811532
0.0810175
0.0809493
0.0451135
0.0452794
0.0456114
0.0461093
0.0467724
0.0475997
0.0485898
0.0497409
0.0510503
0.0525149
0.0541299
0.0558894
0.0577872
0.0598147
0.0619586
0.0642043
0.0665355
0.0689368
0.0713874
0.0738632
0.076336
0.0787758
0.0811525
0.0834353
0.0855926
0.0875944
0.0894129
0.0910243
0.09241
0.0935572
0.0944575
0.0951098
0.09552
0.0956993
0.0956637
0.0954327
0.0950292
0.0944776
0.0938031
0.0930308
0.0921847
0.0912877
0.0903603
0.0894213
0.0884869
0.0875712
0.0866859
0.0858405
0.0850427
0.0842982
0.0836138
0.0829934
0.0824381
0.0819499
0.08153
0.0811794
0.0808984
0.0806872
0.0805462
0.0804754
0.0437634
0.0439337
0.0442745
0.0447862
0.0454682
0.0463203
0.0473418
0.0485313
0.0498874
0.0514077
0.0530885
0.0549251
0.0569115
0.0590418
0.0613016
0.0636762
0.0661499
0.0687074
0.0713261
0.0739802
0.0766383
0.0792672
0.0818323
0.084298
0.0866278
0.0887856
0.090739
0.0924593
0.0939245
0.0951194
0.0960346
0.0966696
0.0970322
0.0971365
0.0970027
0.0966548
0.0961206
0.0954292
0.0946104
0.0936934
0.0927058
0.0916731
0.0906183
0.0895616
0.0885201
0.0875084
0.0865382
0.0856184
0.0847562
0.0839573
0.0832282
0.08257
0.0819836
0.0814702
0.0810304
0.0806642
0.0803716
0.0801521
0.0800058
0.0799324
0.0422409
0.0424157
0.0427656
0.0432913
0.0439927
0.0448704
0.0459243
0.0471542
0.0485595
0.0501391
0.0518908
0.0538109
0.0558948
0.0581372
0.0605256
0.063045
0.0656815
0.0684181
0.0712308
0.074092
0.0769672
0.0798196
0.0826088
0.0852936
0.0878304
0.0901767
0.0922927
0.0941444
0.0957047
0.0969557
0.0978866
0.0984976
0.0987991
0.0988094
0.0985537
0.0980622
0.0973686
0.0965083
0.0955166
0.0944276
0.0932732
0.0920822
0.0908799
0.0896883
0.0885253
0.0874057
0.0863409
0.0853391
0.0844071
0.0835504
0.0827735
0.0820755
0.0814568
0.0809179
0.0804579
0.0800763
0.0797722
0.0795447
0.0793932
0.0793172
0.0405418
0.0407209
0.0410797
0.0416192
0.0423399
0.0432431
0.0443297
0.0456008
0.0470568
0.0486982
0.0505241
0.052533
0.0547211
0.0570846
0.0596153
0.062296
0.0651148
0.0680537
0.0710884
0.0741885
0.0773169
0.0804322
0.0834873
0.0864336
0.0892191
0.0917923
0.0941048
0.0961147
0.0977888
0.0991054
0.100052
0.10063
0.100853
0.100745
0.100338
0.09967
0.0987826
0.0977187
0.0965205
0.0952282
0.0938784
0.0925038
0.0911324
0.0897875
0.0884882
0.0872488
0.0860799
0.0849893
0.0839838
0.0830671
0.0822402
0.0815015
0.0808507
0.0802865
0.0798071
0.0794109
0.0790961
0.0788612
0.078705
0.0786269
0.0386617
0.0388448
0.0392118
0.0397643
0.0405035
0.0414312
0.0425498
0.0438614
0.0453682
0.0470722
0.0489747
0.0510757
0.0533741
0.0558673
0.0585509
0.0614085
0.0644293
0.067595
0.070881
0.0742549
0.0776782
0.0811022
0.0844721
0.0877303
0.0908145
0.0936617
0.0962119
0.0984129
0.100224
0.101617
0.102578
0.10311
0.103232
0.102975
0.10238
0.101495
0.100372
0.0990631
0.0976189
0.096087
0.0945095
0.0929234
0.0913594
0.0898424
0.0883917
0.0870209
0.0857397
0.0845557
0.0834743
0.0824952
0.0816178
0.0808392
0.0801575
0.0795697
0.0790726
0.0786635
0.0783395
0.0780983
0.0779384
0.0778584
0.0365961
0.0367828
0.0371571
0.0377212
0.0384769
0.0394271
0.0405755
0.0419257
0.0434815
0.0452472
0.0472261
0.0494211
0.0518335
0.0544629
0.0573073
0.0603576
0.0636001
0.0670179
0.0705868
0.0742737
0.0780377
0.0818226
0.0855651
0.089196
0.0926402
0.0958196
0.0986587
0.101092
0.103067
0.10455
0.105523
0.105993
0.105984
0.105538
0.104708
0.103556
0.102146
0.100542
0.0988058
0.0969922
0.0951506
0.0933222
0.0915407
0.089832
0.0882151
0.0867022
0.0853025
0.0840227
0.0828635
0.0818217
0.0808954
0.0800794
0.0793697
0.0787611
0.0782493
0.0778299
0.077499
0.0772535
0.0770909
0.0770097
0.0343411
0.0345306
0.0349107
0.0354841
0.0362537
0.0372231
0.0383975
0.0397824
0.0413837
0.0432076
0.0452606
0.0475486
0.050076
0.0528457
0.0558592
0.0591134
0.0625956
0.066291
0.0701766
0.0742192
0.0783751
0.0825813
0.0867649
0.0908426
0.0947225
0.0983066
0.101499
0.104216
0.10639
0.107978
0.108959
0.109343
0.109164
0.108478
0.107355
0.105873
0.104113
0.102154
0.10007
0.097927
0.09578
0.0936759
0.0916505
0.0897302
0.0879323
0.0862684
0.0847473
0.0833711
0.0821344
0.0810327
0.0800616
0.0792127
0.0784795
0.0778549
0.0773326
0.0769067
0.0765721
0.0763246
0.0761611
0.0760795
0.0318934
0.0320847
0.0324686
0.0330484
0.0338278
0.0348119
0.036007
0.0374206
0.0390611
0.0409373
0.0430588
0.0454353
0.0480753
0.050986
0.0541733
0.0576399
0.0613774
0.0653747
0.0696112
0.0740552
0.0786606
0.0833582
0.0880648
0.0926798
0.09709
0.101171
0.1048
0.107866
0.110283
0.111994
0.112976
0.113242
0.11284
0.111847
0.110354
0.108464
0.106277
0.103892
0.101396
0.0988669
0.0963687
0.0939525
0.0916561
0.0895047
0.0875139
0.0856944
0.0840515
0.0825791
0.0812686
0.0801133
0.079104
0.078229
0.0774792
0.076845
0.0763181
0.0758908
0.0755566
0.0753103
0.075148
0.0750672
0.0292508
0.0294426
0.0298277
0.03041
0.0311942
0.0321866
0.0333951
0.0348293
0.0365001
0.0384193
0.0406003
0.0430569
0.0458024
0.0488499
0.0522105
0.0558942
0.0598992
0.0642196
0.0688404
0.0737336
0.0788516
0.0841217
0.0894492
0.0947135
0.0997734
0.10447
0.108641
0.112143
0.114859
0.116717
0.117686
0.117789
0.117094
0.115705
0.113745
0.111347
0.108639
0.10574
0.102756
0.0997779
0.0968777
0.0941111
0.0915165
0.0891165
0.086925
0.0849494
0.0831863
0.0816227
0.0802466
0.0790475
0.0780098
0.0771185
0.0763615
0.0757263
0.0752024
0.07478
0.0744514
0.0742103
0.0740519
0.0739732
0.0264123
0.026603
0.0269862
0.0275662
0.0283488
0.0293416
0.030554
0.031998
0.0336872
0.0356367
0.0378636
0.0403868
0.0432256
0.0463992
0.0499264
0.0538259
0.0581044
0.0627645
0.0677995
0.0731881
0.078886
0.0848231
0.0908892
0.0969417
0.102803
0.108269
0.113125
0.117175
0.120264
0.122296
0.123233
0.123109
0.122023
0.12012
0.117567
0.114535
0.11119
0.107674
0.104114
0.100613
0.0972554
0.0940984
0.0911785
0.0885159
0.0861227
0.0839959
0.0821198
0.0804761
0.0790482
0.0778187
0.0767661
0.0758716
0.0751196
0.0744944
0.0739828
0.0735734
0.0732568
0.0730256
0.0728743
0.0727992
0.0233786
0.0235662
0.0239436
0.0245156
0.0252889
0.0262724
0.0274773
0.0289175
0.0306096
0.0325723
0.0348271
0.0373979
0.0403107
0.0435925
0.0472711
0.0513763
0.0559258
0.0609339
0.0664074
0.0723364
0.0786861
0.0853921
0.0923342
0.0993478
0.106209
0.112648
0.118375
0.123124
0.126684
0.128924
0.129796
0.129356
0.127746
0.125169
0.121856
0.118035
0.11391
0.109654
0.105413
0.101309
0.0974333
0.0938462
0.0905798
0.0876501
0.0850606
0.0827911
0.0808161
0.0791106
0.0776508
0.0764098
0.0753605
0.0744801
0.0737483
0.0731463
0.0726585
0.0722715
0.0719744
0.0717587
0.0716182
0.0715486
0.0201519
0.0203343
0.0207015
0.0212588
0.0220138
0.0229766
0.02416
0.02558
0.0272559
0.0292105
0.0314694
0.0340622
0.0370222
0.0403852
0.0441895
0.0484781
0.0532839
0.0586369
0.0645622
0.0710686
0.07814
0.0857224
0.0936997
0.101888
0.11001
0.117698
0.124551
0.130205
0.134369
0.13686
0.137618
0.136729
0.134405
0.130936
0.126643
0.121834
0.116763
0.11162
0.106578
0.101777
0.0973209
0.0932685
0.0896446
0.086454
0.0836805
0.081287
0.0792377
0.0774975
0.0760323
0.0748048
0.0737822
0.0729368
0.0722438
0.0716811
0.0712306
0.070877
0.0706081
0.0704143
0.0702887
0.0702267
0.0167367
0.0169115
0.0172635
0.0177986
0.018525
0.0194538
0.0205996
0.0219801
0.0236173
0.0255374
0.0277708
0.0303528
0.0333242
0.0367306
0.0406219
0.0450562
0.0500872
0.055764
0.0621361
0.0692397
0.0770869
0.0856509
0.0948456
0.104481
0.114222
0.123524
0.131847
0.138687
0.143634
0.14643
0.146995
0.145465
0.142156
0.137493
0.131932
0.125889
0.119685
0.113487
0.107497
0.101897
0.0967991
0.0922562
0.0882791
0.0848471
0.0819156
0.0794316
0.0773452
0.0756079
0.0741715
0.0729892
0.0720225
0.0712375
0.0706052
0.0701002
0.0697024
0.0693947
0.0691637
0.068999
0.0688931
0.068841
0.0131402
0.0133045
0.013636
0.0141405
0.0148268
0.0157071
0.0167969
0.0181159
0.019688
0.0215427
0.0237147
0.0262452
0.0291822
0.0325817
0.0365065
0.0410303
0.0462333
0.0521881
0.0589753
0.0666688
0.0753242
0.0849636
0.095555
0.106937
0.118774
0.130226
0.14051
0.148942
0.154938
0.158122
0.158381
0.155928
0.151243
0.144961
0.137739
0.130142
0.122606
0.115133
0.108024
0.101516
0.0957263
0.0906856
0.086376
0.082737
0.0796936
0.0771707
0.075099
0.0734132
0.0720493
0.070952
0.0700757
0.0693809
0.0688344
0.0684084
0.0680805
0.0678325
0.06765
0.067522
0.0674408
0.0674011
0.00937199
0.00952305
0.00982804
0.0102929
0.0109269
0.0117427
0.0127565
0.0139893
0.0154667
0.0172205
0.0192894
0.0217194
0.0245659
0.0278948
0.0317823
0.036319
0.0416125
0.0477666
0.054899
0.0631335
0.0725851
0.0833503
0.095485
0.108991
0.123802
0.13801
0.150875
0.161425
0.168805
0.172456
0.172213
0.168402
0.161764
0.153257
0.143861
0.134304
0.125411
0.116396
0.107947
0.100419
0.0939094
0.088395
0.0838021
0.08002
0.0769372
0.0744493
0.0724618
0.0708886
0.0696514
0.0686865
0.067941
0.0673703
0.0669379
0.066614
0.0663748
0.0662011
0.0660784
0.0659953
0.065944
0.0659193
0.0054449
0.00557966
0.00585214
0.00626815
0.00683688
0.00757123
0.00848765
0.00960759
0.0109577
0.0125714
0.0144896
0.0167627
0.019452
0.0226322
0.0263926
0.0308408
0.0361101
0.0423435
0.0497027
0.0583704
0.0685334
0.0803816
0.0941098
0.109826
0.121813
0.139447
0.155709
0.169589
0.179845
0.185562
0.186313
0.18235
0.174585
0.164317
0.152925
0.141503
0.128195
0.117029
0.10697
0.0983108
0.091097
0.0851834
0.080404
0.076585
0.0735691
0.0712158
0.0694007
0.0680156
0.0669703
0.0661927
0.0656237
0.0652147
0.0649271
0.0647299
0.0645989
0.0645149
0.0644634
0.0644335
0.0644174
0.0644103
0.0013747
0.0014902
0.00172403
0.0020818
0.00257214
0.00320775
0.00400466
0.00498398
0.00617241
0.00760356
0.0093193
0.0113723
0.0138279
0.0167675
0.0202915
0.0245228
0.029617
0.0357597
0.0431646
0.0520815
0.0627778
0.0755192
0.0905608
0.104228
0.124081
0.145754
0.167269
0.185904
0.19978
0.207404
0.208016
0.201994
0.190843
0.176683
0.161683
0.147423
0.133852
0.116795
0.104592
0.0947884
0.0869843
0.0808199
0.0760183
0.0723231
0.0695202
0.0674293
0.0658935
0.0647866
0.0640086
0.0634799
0.0631372
0.0629299
0.0628192
0.0627742
0.0627713
0.0627921
0.0628232
0.0628544
0.0628787
0.0628917
-0.00281968
-0.00272637
-0.00253708
-0.00224682
-0.00184754
-0.00132773
-0.000672352
0.000138478
0.00112998
0.00233468
0.00379343
0.00555854
0.00769644
0.0102915
0.0134511
0.0173108
0.0220443
0.0278712
0.0350662
0.0439572
0.0549289
0.0683607
0.0846969
0.100727
0.123691
0.146182
0.174729
0.199664
0.219106
0.230563
0.232438
0.224959
0.210263
0.191544
0.172119
0.153587
0.134456
0.114249
0.0999196
0.0893085
0.0811959
0.0750526
0.070482
0.0671352
0.0647369
0.063064
0.0619346
0.0612099
0.0607823
0.0605686
0.0605044
0.0605402
0.0606385
0.0607705
0.0609148
0.0610548
0.0611791
0.0612788
0.0613481
0.0613835
-0.00711636
-0.00704784
-0.00690865
-0.00669437
-0.00639823
-0.00601018
-0.00551715
-0.00490174
-0.00414127
-0.00320651
-0.00205983
-0.000652337
0.00107937
0.00321769
0.00587089
0.00917954
0.0133299
0.0185657
0.0252095
0.0336784
0.0445196
0.0582807
0.0756536
0.09429
0.121096
0.147409
0.184582
0.219412
0.248131
0.265707
0.268828
0.257677
0.236109
0.209586
0.183125
0.157392
0.132735
0.10744
0.0920604
0.0812697
0.0733373
0.0676405
0.0636582
0.0609528
0.0591928
0.0581213
0.0575428
0.0573136
0.0573243
0.0574934
0.05776
0.0580788
0.0584166
0.0587487
0.0590573
0.0593293
0.0595558
0.0597303
0.0598487
0.0599084
-0.0114906
-0.0114492
-0.0113649
-0.011234
-0.0110516
-0.0108095
-0.0104976
-0.0101017
-0.00960377
-0.00897941
-0.00819711
-0.00721496
-0.0059774
-0.00441028
-0.00241343
0.000148203
0.00346015
0.00777589
0.0134417
0.020939
0.0309974
0.044413
0.0623027
0.0834914
0.114147
0.146933
0.194946
0.24405
0.287418
0.314791
0.318914
0.300086
0.266112
0.226826
0.189744
0.154266
0.125045
0.0954645
0.0802038
0.0701034
0.0630734
0.0584093
0.0554758
0.0537646
0.0529086
0.0526412
0.0527684
0.0531513
0.0536877
0.0543049
0.054951
0.055589
0.0561928
0.0567442
0.0572312
0.0576453
0.0579812
0.0582353
0.0584056
0.0584909
-0.0159153
-0.0159029
-0.0158771
-0.0158357
-0.0157753
-0.0156909
-0.0155753
-0.0154193
-0.0152103
-0.0149311
-0.0145591
-0.0140631
-0.0134008
-0.0125138
-0.0113199
-0.00970483
-0.00750473
-0.00447957
-0.000290612
0.00553629
0.0138546
0.0256953
0.0427471
0.0659039
0.0990346
0.139542
0.201133
0.272007
0.340764
0.386153
0.390878
0.356016
0.299558
0.24007
0.18878
0.142079
0.109538
0.0771424
0.0636288
0.0554011
0.0502208
0.0473137
0.0459655
0.0456362
0.0459686
0.0467149
0.0477007
0.0488061
0.0499481
0.051071
0.0521376
0.0531236
0.0540137
0.0547986
0.0554736
0.0560361
0.0564855
0.0568218
0.0570455
0.0571572
-0.0203612
-0.020379
-0.0204144
-0.0204664
-0.0205341
-0.0206152
-0.020707
-0.0208054
-0.0209048
-0.0209971
-0.0210707
-0.0211092
-0.0210887
-0.0209741
-0.020713
-0.020228
-0.0194029
-0.0180511
-0.0158846
-0.0125257
-0.00716152
0.0012794
0.0150225
0.0382393
0.0700981
0.117263
0.193341
0.296723
0.412696
0.495985
0.499826
0.429264
0.331381
0.242359
0.174023
0.116392
0.0836457
0.0513758
0.0418774
0.0370423
0.0348372
0.0344932
0.0352912
0.0367367
0.038536
0.0404916
0.0424715
0.0443931
0.0462048
0.0478767
0.0493924
0.0507448
0.0519326
0.0529578
0.0538244
0.0545371
0.0551006
0.0555191
0.0557961
0.055934
-0.0247976
-0.0248462
-0.0249439
-0.0250914
-0.0252899
-0.0255405
-0.0258451
-0.0262055
-0.026624
-0.0271025
-0.027643
-0.0282462
-0.028911
-0.029633
-0.0303996
-0.0311865
-0.031952
-0.0326089
-0.0329847
-0.0328968
-0.0317745
-0.0288863
-0.0218968
-0.00244036
0.0204824
0.0675742
0.150932
0.295757
0.502634
0.678729
0.674958
0.516101
0.343883
0.2181
0.135727
0.0725607
0.0451457
0.017716
0.0150402
0.0153361
0.0173016
0.0203153
0.0237866
0.02736
0.0308626
0.0341826
0.037257
0.0400587
0.0425792
0.0448223
0.0467987
0.0485222
0.050008
0.0512713
0.0523262
0.0531852
0.0538592
0.054357
0.0546852
0.0548481
-0.0291932
-0.0292725
-0.0294321
-0.0296746
-0.0300032
-0.0304228
-0.0309395
-0.0315616
-0.0322993
-0.0331655
-0.0341763
-0.0353513
-0.0367151
-0.0382974
-0.0401338
-0.0422645
-0.0447421
-0.0476206
-0.050906
-0.0547155
-0.0589122
-0.0635122
-0.0668591
-0.0569273
-0.0550621
-0.0242688
0.0359913
0.203248
0.566252
1.01362
0.967751
0.565869
0.286913
0.141178
0.0632519
0.0069092
-0.00676189
-0.0229385
-0.0159164
-0.00883798
-0.00161711
0.00541939
0.0119726
0.0179268
0.0232859
0.028058
0.0322735
0.0359761
0.0392103
0.0420204
0.0444479
0.0465302
0.0483012
0.0497899
0.0510216
0.052017
0.0527935
0.0533643
0.0537395
0.0539254
-0.0335167
-0.0336256
-0.0338454
-0.0341798
-0.0346346
-0.0352176
-0.0359397
-0.0368146
-0.0378608
-0.0391013
-0.0405662
-0.0422939
-0.0443342
-0.0467522
-0.0496323
-0.0530837
-0.0572591
-0.0623721
-0.0686449
-0.076557
-0.0865352
-0.0996027
-0.115408
-0.120723
-0.15264
-0.165064
-0.194898
-0.136433
0.240834
1.49579
1.36549
0.28692
0.0624041
-0.0129672
-0.0489474
-0.078944
-0.0693605
-0.0677947
-0.0489104
-0.0338993
-0.0207112
-0.00928215
0.000544346
0.0089692
0.0162143
0.0224325
0.0277653
0.0323361
0.0362481
0.0395894
0.042434
0.0448446
0.0468733
0.0485639
0.0499523
0.0510677
0.0519336
0.0525678
0.0529836
0.0531894
-0.0377374
-0.0378744
-0.038151
-0.0385722
-0.0391457
-0.0398821
-0.0407963
-0.0419072
-0.04324
-0.044827
-0.0467102
-0.0489446
-0.0516022
-0.0547787
-0.0586026
-0.0632434
-0.0689412
-0.076055
-0.0850052
-0.0966034
-0.1118
-0.132544
-0.159782
-0.182796
-0.252196
-0.328341
-0.521585
-0.820045
-1.23102
-0.934706
-0.324606
-0.223987
-0.185974
-0.174642
-0.1361
-0.112233
-0.0807844
-0.0576334
-0.0384063
-0.0226647
-0.00967824
0.00109177
0.0100971
0.0176437
0.023988
0.0293341
0.0338433
0.0376463
0.040849
0.0435375
0.045782
0.0476395
0.0491561
0.0503687
0.0513064
0.0519911
0.0524392
0.0526606
-0.0418266
-0.0419894
-0.0423181
-0.0428187
-0.0435004
-0.0443763
-0.045464
-0.0467866
-0.0483746
-0.0502671
-0.0525153
-0.0551864
-0.0583686
-0.0621794
-0.0667779
-0.0723764
-0.0792691
-0.0879111
-0.0988439
-0.113066
-0.131798
-0.157383
-0.191231
-0.227776
-0.320229
-0.447307
-0.782511
-1.47808
-3.27134
-3.9319
-1.23079
-0.596597
-0.415961
-0.317747
-0.264344
-0.19739
-0.150467
-0.10775
-0.0774898
-0.0529539
-0.0335163
-0.0178343
-0.0050871
0.00538483
0.0140235
0.0211895
0.0271568
0.0321374
0.0362996
0.0397763
0.0426741
0.0450783
0.0470572
0.0486656
0.0499466
0.0509341
0.0516535
0.0521234
0.0523554
-0.0457574
-0.0459433
-0.0463183
-0.0468893
-0.0476665
-0.0486645
-0.049903
-0.0514074
-0.0532115
-0.0553587
-0.0579054
-0.0609251
-0.0645142
-0.0688002
-0.0739557
-0.0802089
-0.0878642
-0.0974015
-0.109371
-0.124751
-0.144662
-0.171061
-0.204773
-0.244988
-0.33223
-0.45876
-0.769462
-1.38053
-3.16559
-3.49005
-2.48689
-0.850413
-0.776808
-0.561614
-0.420083
-0.332187
-0.243456
-0.17705
-0.126274
-0.0911053
-0.0627547
-0.0407406
-0.0231524
-0.00902063
0.00247084
0.0118588
0.0195812
0.0259615
0.0312487
0.0356386
0.0392841
0.0423065
0.0448025
0.0468485
0.0485054
0.0498211
0.0508328
0.0515685
0.0520483
0.052285
-0.049506
-0.0497118
-0.0501267
-0.0507579
-0.0516162
-0.0527169
-0.0540805
-0.0557332
-0.0577099
-0.0600551
-0.0628262
-0.0660968
-0.069963
-0.0745496
-0.0800238
-0.0866033
-0.0945609
-0.104332
-0.116375
-0.131474
-0.150394
-0.174153
-0.202653
-0.237199
-0.298214
-0.376349
-0.529815
-0.616136
-0.748463
-2.97762
-2.45871
-1.70037
-1.01635
-0.658004
-0.476472
-0.365847
-0.266838
-0.188285
-0.133999
-0.0968579
-0.0667153
-0.0435753
-0.0250915
-0.0103236
0.00163344
0.0113533
0.0193133
0.0258593
0.0312599
0.035725
0.0394184
0.0424693
0.0449804
0.0470325
0.04869
0.0500032
0.051011
0.0517428
0.0522195
0.0524545
-0.0530517
-0.053274
-0.0537219
-0.0544026
-0.055327
-0.05651
-0.0579717
-0.059738
-0.0618425
-0.0643279
-0.067248
-0.0706718
-0.0746867
-0.0794041
-0.0849702
-0.0915719
-0.0994208
-0.108863
-0.120217
-0.134003
-0.150636
-0.170142
-0.192131
-0.217743
-0.253051
-0.283132
-0.326509
-0.189579
-0.286458
-2.27213
-2.16865
-1.83197
-1.01556
-0.648366
-0.469889
-0.358596
-0.263792
-0.182778
-0.130061
-0.0940735
-0.0643785
-0.0416753
-0.0233977
-0.00881029
0.0030103
0.0126084
0.0204602
0.026905
0.032211
0.036588
0.0401999
0.0431769
0.0456218
0.0476157
0.0492232
0.0504946
0.051469
0.0521758
0.0526359
0.0528624
-0.0563771
-0.0566125
-0.0570866
-0.0578061
-0.0587814
-0.0600266
-0.0615602
-0.0634065
-0.0655959
-0.0681665
-0.0711659
-0.0746533
-0.0787025
-0.0834034
-0.0888713
-0.0952507
-0.102681
-0.1114
-0.121591
-0.133547
-0.147502
-0.162778
-0.179525
-0.198082
-0.220037
-0.235057
-0.2424
-0.297659
-0.457613
-1.22243
-1.59108
-1.21876
-0.75722
-0.527765
-0.403715
-0.313826
-0.236083
-0.161784
-0.11525
-0.0831543
-0.055981
-0.0351552
-0.018134
-0.00451524
0.00658386
0.0156143
0.0230155
0.029093
0.0340962
0.0382211
0.041622
0.0444223
0.0467192
0.0485901
0.0500967
0.0512871
0.0521986
0.0528592
0.053289
0.0535005
-0.0594682
-0.0597136
-0.0602073
-0.0609554
-0.0619674
-0.0632559
-0.0648374
-0.066733
-0.0689689
-0.0715767
-0.0745954
-0.0780721
-0.0820633
-0.0866349
-0.0918647
-0.0978503
-0.10466
-0.112432
-0.121242
-0.131204
-0.142552
-0.154156
-0.167039
-0.180825
-0.196394
-0.213368
-0.223936
-0.300924
-0.354414
-0.431897
-0.540598
-0.55414
-0.455682
-0.367462
-0.305505
-0.245174
-0.190492
-0.129042
-0.0917935
-0.0654346
-0.0423678
-0.0245413
-0.00965236
0.00232304
0.0121889
0.0202529
0.0268924
0.032357
0.0368637
0.0405828
0.0436504
0.0461761
0.0482474
0.0499337
0.0512909
0.0523626
0.0531828
0.053777
0.0541635
0.0543537
-0.0623145
-0.0625668
-0.0630741
-0.0638416
-0.0648777
-0.0661929
-0.0678012
-0.0697201
-0.0719704
-0.0745769
-0.0775686
-0.0809791
-0.0848468
-0.0892128
-0.0941141
-0.0996049
-0.105689
-0.112421
-0.119807
-0.127776
-0.13665
-0.144888
-0.154303
-0.163665
-0.172106
-0.185815
-0.190446
-0.199971
-0.161389
-0.0974619
-0.1296
-0.208723
-0.231785
-0.223021
-0.204801
-0.169328
-0.136387
-0.0894841
-0.0626582
-0.0428496
-0.0248219
-0.0106877
0.00146545
0.0113065
0.0195407
0.0263151
0.0319335
0.0365769
0.0404199
0.0435986
0.0462246
0.0483888
0.0501644
0.0516105
0.0527744
0.0536934
0.0543965
0.0549059
0.0552372
0.0554001
-0.0649083
-0.0651651
-0.0656808
-0.0664598
-0.067509
-0.0688372
-0.0704552
-0.0723767
-0.0746171
-0.0771941
-0.0801273
-0.0834362
-0.0871404
-0.0912571
-0.0957855
-0.100745
-0.106091
-0.11179
-0.117806
-0.123858
-0.130371
-0.135334
-0.141271
-0.145677
-0.145107
-0.148375
-0.123385
-0.0790352
0.016928
0.0465445
0.024097
-0.0483511
-0.0970812
-0.115779
-0.116769
-0.0973792
-0.0810902
-0.0476703
-0.0308829
-0.0174609
-0.0047419
0.00541945
0.014507
0.0219333
0.0282766
0.0335294
0.0379302
0.0415905
0.0446372
0.0471665
0.0492619
0.0509921
0.0524137
0.0535726
0.0545058
0.0552429
0.055807
0.0562156
0.0564814
0.056612
-0.067245
-0.067504
-0.0680237
-0.0688077
-0.0698615
-0.0711915
-0.0728064
-0.0747157
-0.0769298
-0.0794601
-0.0823171
-0.0855058
-0.0890297
-0.0928846
-0.0970446
-0.101495
-0.106154
-0.110901
-0.11568
-0.119987
-0.12435
-0.12625
-0.128935
-0.128319
-0.119546
-0.110701
-0.0571818
0.0201807
0.13594
0.0903063
0.0619073
0.0141121
-0.023262
-0.0415537
-0.0465316
-0.0348007
-0.029364
-0.00682987
0.0012476
0.00895883
0.0165794
0.0228468
0.0287695
0.0336618
0.0379832
0.0415827
0.0446422
0.0472081
0.0493639
0.0511644
0.0526627
0.0539041
0.0549266
0.0557617
0.056435
0.0569672
0.0573748
0.0576701
0.0578623
0.0579565
-0.0693218
-0.0695814
-0.0701018
-0.0708857
-0.0719374
-0.0732615
-0.0748644
-0.0767523
-0.0789308
-0.0814062
-0.0841802
-0.0872453
-0.0905944
-0.094208
-0.0980407
-0.102047
-0.106121
-0.110063
-0.113826
-0.116685
-0.119307
-0.118673
-0.118856
-0.114009
-0.0993675
-0.0806381
-0.0138804
0.0749875
0.182969
0.051427
0.0504191
0.0331902
0.0163073
0.00863842
0.00682864
0.0175838
0.0168008
0.0312751
0.032277
0.0351437
0.0381184
0.0407753
0.0436207
0.0459905
0.0482512
0.0501469
0.0518121
0.0532256
0.0544346
0.0554572
0.0563162
0.0570328
0.057626
0.0581124
0.0585057
0.058817
0.0590557
0.0592288
0.0593416
0.0593967
-0.0711384
-0.0713972
-0.0719156
-0.0726956
-0.0737405
-0.0750536
-0.0766394
-0.0785012
-0.0806411
-0.0830603
-0.0857534
-0.0887074
-0.0919074
-0.095322
-0.0988934
-0.102551
-0.106187
-0.109531
-0.11258
-0.114414
-0.115894
-0.113556
-0.112339
-0.104399
-0.0863632
-0.0618417
0.00598365
0.0904799
0.175763
-0.00119516
0.0267345
0.0372515
0.0426147
0.0436532
0.0476315
0.0610044
0.0571908
0.0660268
0.0614227
0.0602899
0.0591474
0.0585518
0.0585094
0.058474
0.0587124
0.0589146
0.0591824
0.059434
0.0596793
0.0599041
0.0601053
0.0602804
0.0604297
0.0605547
0.0606572
0.0607391
0.0608022
0.0608482
0.0608783
0.0608926
-0.0726954
-0.0729524
-0.0734669
-0.0742405
-0.0752756
-0.0765746
-0.0781409
-0.0799753
-0.0820774
-0.0844445
-0.087069
-0.0899356
-0.0930238
-0.0962953
-0.0996886
-0.103117
-0.106491
-0.109483
-0.112175
-0.113482
-0.114531
-0.111457
-0.110027
-0.100195
-0.0809133
-0.0545617
0.00634382
0.0778633
0.137858
-0.00577235
0.0266546
0.0453603
0.0587302
0.0676984
0.0804458
0.0975353
0.0925855
0.0975303
0.0883961
0.0839549
0.0791832
0.0756807
0.0729766
0.0707082
0.0690277
0.0676051
0.0665151
0.0656294
0.064929
0.0643651
0.0639124
0.0635478
0.0632534
0.0630166
0.0628273
0.0626785
0.0625649
0.0624829
0.0624296
0.0624028
-0.0739947
-0.0742492
-0.0747585
-0.0755238
-0.0765472
-0.0778306
-0.0793764
-0.0811837
-0.0832516
-0.0855762
-0.0881502
-0.0909575
-0.0939767
-0.0971673
-0.100474
-0.103803
-0.107103
-0.110006
-0.112713
-0.113999
-0.115331
-0.112441
-0.111899
-0.101308
-0.0826073
-0.057622
-0.00582666
0.0545384
0.0997965
-0.00395235
0.0428078
0.0651237
0.0763666
0.0890431
0.108507
0.129359
0.124165
0.126285
0.113215
0.105927
0.0979076
0.0918006
0.0866518
0.0823352
0.0788744
0.075946
0.0735839
0.0716216
0.070021
0.068704
0.0676233
0.0667379
0.0660144
0.0654265
0.0649537
0.0645803
0.0642945
0.0640873
0.0639527
0.0638857
-0.0750391
-0.0752904
-0.0757934
-0.076549
-0.0775594
-0.0788263
-0.0803511
-0.0821335
-0.0841732
-0.0864668
-0.0890088
-0.0917847
-0.0947772
-0.0979491
-0.10126
-0.104615
-0.108021
-0.111083
-0.114142
-0.11586
-0.118097
-0.116166
-0.117446
-0.107128
-0.0905789
-0.0688043
-0.024192
0.0242153
0.0702853
-0.0109754
0.0408232
0.06475
0.0848257
0.110108
0.135689
0.158545
0.153174
0.152863
0.135996
0.126088
0.115074
0.106617
0.0992381
0.0930709
0.0879898
0.0836972
0.0801814
0.0772358
0.0748065
0.072793
0.07113
0.0697591
0.0686337
0.0677163
0.0669767
0.0663915
0.0659428
0.0656173
0.0654055
0.0653005
-0.0758319
-0.0760795
-0.0765753
-0.0773201
-0.0783164
-0.0795655
-0.0810696
-0.0828298
-0.0848472
-0.0871202
-0.0896465
-0.0924155
-0.0954188
-0.0986265
-0.102021
-0.105512
-0.109175
-0.112596
-0.116275
-0.118788
-0.12241
-0.122023
-0.125859
-0.116705
-0.103487
-0.0862597
-0.049891
-0.0140942
0.0374724
0.0130996
0.0364357
0.0641238
0.0968504
0.132068
0.161883
0.18692
0.180779
0.17766
0.156764
0.144281
0.130437
0.11985
0.110463
0.102663
0.0961482
0.0906553
0.0861227
0.082314
0.0791519
0.0765176
0.0743336
0.0725268
0.0710388
0.0698227
0.0688406
0.0680623
0.0674649
0.0670311
0.0667486
0.0666087
-0.076377