/*--------------------------------*- C++ -*----------------------------------*\
  =========                 |
  \\      /  F ield         | OpenFOAM: The Open Source CFD Toolbox
   \\    /   O peration     | Website:  https://openfoam.org
    \\  /    A nd           | Version:  12
     \\/     M anipulation  |
\*---------------------------------------------------------------------------*/
FoamFile
{
    format      ascii;
    class       surfaceScalarField;
    location    "440";
    object      phi;
}
// * * * * * * * * * * * * * * * * * * * * * * * * * * * * * * * * * * * * * //

dimensions      [0 3 -1 0 0 0 0];

internalField   nonuniform List<scalar> 
32440
(
-3.69908e-07
0.0399884
1.26379e-06
0.0399884
-1.09888e-06
0.0399904
5.4431e-07
0.0399884
-1.80396e-06
0.0399903
-1.41862e-07
0.0399983
-4.66525e-07
0.0400103
-7.75681e-07
0.0400103
9.34618e-07
0.0400103
2.66779e-06
0.0400103
4.42787e-06
0.0400102
2.17296e-07
0.0400042
3.70329e-08
0.0400002
-1.07443e-07
0.0400001
-2.12531e-07
0.0400001
-2.74574e-07
0.0400001
-2.90225e-07
0.04
-2.5648e-07
0.04
-1.70913e-07
0.0399999
-3.19146e-08
0.0399999
1.61239e-07
0.0399998
4.0816e-07
0.0399998
7.07746e-07
0.0399997
1.05758e-06
0.0399997
1.45395e-06
0.0399996
1.89188e-06
0.0399996
2.36518e-06
0.0399995
2.8671e-06
0.0399995
1.78824e-06
0.0400011
-3.34087e-06
0.0400051
-4.34741e-06
0.040001
-4.02146e-06
0.0399997
-3.51144e-06
0.0399995
-3.02581e-06
0.0399995
-1.57231e-06
0.0399985
-1.1577e-06
0.0399996
-7.8744e-07
0.0399996
-4.6598e-07
0.0399997
-1.96523e-07
0.0399997
1.89482e-08
0.0399998
1.79592e-07
0.0399998
2.856e-07
0.0399999
3.38093e-07
0.0399999
3.38931e-07
0.04
2.90815e-07
0.04
1.96797e-07
0.0400001
6.01892e-08
0.0400001
-1.1526e-07
0.0400002
-3.26194e-07
0.0400002
-5.68763e-07
0.0400002
-8.39308e-07
0.0400003
-3.13434e-06
0.0400023
-9.45008e-06
0.0400063
-3.78333e-06
0.0400063
-1.31194e-07
0.0400083
-4.9109e-07
0.0400104
1.1398e-06
0.0399984
7.63689e-07
0.0399884
3.82777e-07
0.0399904
0.0399884
-1.75584e-06
0.0399901
-3.50328e-06
0.0399901
-5.23493e-06
0.0399921
-6.94217e-06
0.0399901
-6.61564e-06
0.03999
-6.24655e-06
0.039998
-5.82467e-06
0.0400099
-7.339e-06
0.0400118
-6.77653e-06
0.0400097
-4.12558e-06
0.0400076
-1.36804e-06
0.0400075
-1.04913e-05
0.0400133
-1.54906e-05
0.0400052
-1.63453e-05
0.040001
-1.70428e-05
0.0400008
-1.75676e-05
0.0400006
-1.7907e-05
0.0400004
-1.80495e-05
0.0400001
-1.79856e-05
0.0399999
-1.77093e-05
0.0399996
-1.72157e-05
0.0399993
-1.65089e-05
0.039999
-1.55917e-05
0.0399988
-1.44737e-05
0.0399985
-1.31689e-05
0.0399983
-1.14962e-05
0.0399979
-9.87844e-06
0.0399979
-8.54294e-06
0.0399982
-8.11873e-06
0.0400007
-1.19445e-05
0.040009
-1.15338e-05
0.0400006
-9.63889e-06
0.0399978
-7.78439e-06
0.0399976
-5.99972e-06
0.0399977
-5.51148e-06
0.0399981
-3.94278e-06
0.039998
-2.51241e-06
0.0399982
-1.23536e-06
0.0399984
-1.22181e-07
0.0399986
8.20856e-07
0.0399988
1.5913e-06
0.0399991
2.19028e-06
0.0399993
2.62194e-06
0.0399995
2.89344e-06
0.0399997
5.01263e-06
0.0399979
4.98992e-06
0.0400001
4.83659e-06
0.0400003
4.56424e-06
0.0400004
4.18554e-06
0.0400006
3.71236e-06
0.0400007
1.15528e-06
0.0400028
-3.4736e-06
0.0400069
-6.1639e-06
0.040009
-4.90699e-06
0.0400051
-3.6932e-06
0.0400071
-2.514e-06
0.0400092
2.6383e-06
0.0399932
-2.29563e-07
0.0399912
8.89031e-07
0.0399893
0.0399893
-3.20575e-06
0.0399933
-6.39827e-06
0.0399933
-7.55968e-06
0.0399933
-1.06742e-05
0.0399932
-1.57244e-05
0.0399951
-1.26909e-05
0.0399949
-1.55597e-05
0.0400128
-1.63041e-05
0.0400126
-1.69071e-05
0.0400103
-1.73398e-05
0.040008
-1.75827e-05
0.0400077
-2.75935e-05
0.0400233
-3.13747e-05
0.040009
-3.28921e-05
0.0400025
-3.41124e-05
0.040002
-3.50172e-05
0.0400015
-3.55819e-05
0.0400009
-3.57871e-05
0.0400003
-3.1618e-05
0.0399957
-3.50642e-05
0.040003
-3.41222e-05
0.0399984
-3.27951e-05
0.0399977
-3.10931e-05
0.0399971
-2.90354e-05
0.0399965
-2.665e-05
0.0399959
-2.39724e-05
0.0399952
-2.10459e-05
0.039995
-1.79189e-05
0.039995
-1.62485e-05
0.039999
-1.85767e-05
0.0400113
-1.67056e-05
0.0399987
-1.35513e-05
0.0399946
-1.02834e-05
0.0399944
-7.15317e-06
0.0399946
-3.20671e-06
0.0399941
-4.82969e-07
0.0399953
1.98625e-06
0.0399957
4.17777e-06
0.0399962
6.07504e-06
0.0399967
7.66986e-06
0.0399972
8.96056e-06
0.0399978
9.95174e-06
0.0399983
1.06539e-05
0.0399988
1.10789e-05
0.0399993
9.24582e-06
0.0399998
9.1734e-06
0.0400002
8.88339e-06
0.0400006
1.03956e-05
0.0399989
9.73208e-06
0.0400013
6.91428e-06
0.0400035
3.96209e-06
0.0400058
-7.10262e-06
0.040018
-2.26934e-06
0.0400042
-1.51888e-06
0.0400043
-8.3573e-07
0.0400065
1.79359e-06
0.0400066
4.38188e-06
0.0399906
2.93953e-06
0.0399927
1.47713e-06
0.0399907
0.0399907
-4.53991e-06
0.0399979
-9.06154e-06
0.0399978
-1.35362e-05
0.0399977
-1.79395e-05
0.0399976
-2.02455e-05
0.0399974
-2.44281e-05
0.0399991
-2.24576e-05
0.0400108
-2.43086e-05
0.0400144
-2.59413e-05
0.040012
-2.93294e-05
0.0400114
-3.2425e-05
0.0400108
-3.91881e-05
0.0400301
-4.56087e-05
0.0400154
-4.96316e-05
0.0400065
-5.12274e-05
0.0400036
-5.03503e-05
0.0400006
-4.89776e-05
0.0399995
-3.90863e-05
0.0399904
-3.2653e-05
0.0399892
-4.36338e-05
0.040014
-4.80673e-05
0.0400028
-4.59445e-05
0.0399956
-4.32828e-05
0.0399944
-4.01104e-05
0.0399933
-3.6476e-05
0.0399923
-3.24322e-05
0.0399912
-2.8045e-05
0.0399906
-2.35912e-05
0.0399906
-2.01477e-05
0.0399955
-2.08895e-05
0.040012
-1.7451e-05
0.0399953
-1.27746e-05
0.0399899
-7.85424e-06
0.0399894
-3.36548e-06
0.0399901
-3.73922e-07
0.0399911
3.46497e-06
0.0399915
6.90758e-06
0.0399923
9.92287e-06
0.0399932
1.44904e-05
0.0399922
1.66026e-05
0.0399951
1.82606e-05
0.0399961
1.94764e-05
0.0399971
2.02644e-05
0.039998
2.06511e-05
0.0399989
2.06648e-05
0.0399997
2.03338e-05
0.0400005
1.96909e-05
0.0400012
1.67719e-05
0.0400019
1.76058e-05
0.0400004
1.62251e-05
0.0400049
4.66094e-06
0.0400173
2.94099e-06
0.0400197
1.08269e-06
0.040006
1.11343e-06
0.0400043
1.05478e-06
0.0400065
6.92617e-06
0.0400007
4.74253e-06
0.0399928
4.51943e-06
0.0399929
2.27042e-06
0.039993
0.039993
-5.81329e-06
0.0400037
-1.16033e-05
0.0400036
-1.73304e-05
0.0400035
-2.2961e-05
0.0400032
-2.84646e-05
0.0400029
-3.18013e-05
0.0400025
-2.89349e-05
0.0400079
-3.38269e-05
0.0400193
-3.84346e-05
0.0400166
-4.07113e-05
0.0400137
-4.26081e-05
0.0400127
-4.60668e-05
0.0400336
-5.70496e-05
0.0400264
-6.15207e-05
0.040011
-6.34182e-05
0.0400055
-6.46992e-05
0.0400019
-5.93198e-05
0.0399942
-4.5267e-05
0.0399764
-5.04636e-05
0.0399944
-5.88921e-05
0.0400224
-6.05987e-05
0.0400045
-5.75719e-05
0.0399926
-5.38403e-05
0.0399907
-4.94455e-05
0.0399889
-4.44423e-05
0.0399873
-3.89099e-05
0.0399856
-3.29399e-05
0.0399846
-2.66341e-05
0.0399843
-2.1709e-05
0.0399906
-2.07587e-05
0.0400111
-1.5663e-05
0.0399902
-9.18717e-06
0.0399835
-3.15748e-06
0.0399834
2.92717e-06
0.039984
9.17961e-06
0.0399849
1.41289e-05
0.0399865
1.85197e-05
0.0399879
2.23127e-05
0.0399894
2.34892e-05
0.039991
2.6038e-05
0.0399926
2.79679e-05
0.0399942
3.12976e-05
0.0399938
3.20552e-05
0.0399973
3.22783e-05
0.0399987
3.20024e-05
0.04
3.12767e-05
0.0400012
3.01472e-05
0.0400024
2.86543e-05
0.0400033
2.48489e-05
0.0400042
1.47705e-05
0.040015
4.6829e-07
0.0400316
9.95321e-06
0.0400102
9.273e-06
0.0400067
6.45839e-06
0.0400071
7.535e-06
0.0400054
1.25263e-05
0.0399957
9.45249e-06
0.0399959
6.33102e-06
0.039996
3.1791e-06
0.0399961
0.0399962
-7.05911e-06
0.0400107
-1.2089e-05
0.0400086
-1.90419e-05
0.0400104
-2.58762e-05
0.04001
-3.25501e-05
0.0400096
-3.90186e-05
0.0400089
-4.12341e-05
0.0400101
-4.11483e-05
0.0400192
-4.67098e-05
0.0400221
-5.18593e-05
0.0400189
-5.45463e-05
0.0400154
-4.07054e-05
0.0400197
-6.22083e-05
0.0400479
-7.30971e-05
0.0400219
-7.72708e-05
0.0400097
-7.66717e-05
0.0400013
-6.92594e-05
0.0399868
-6.49801e-05
0.0399721
-6.77577e-05
0.0399972
-7.35906e-05
0.0400283
-7.25071e-05
0.0400034
-6.85007e-05
0.0399886
-6.36045e-05
0.0399858
-5.7873e-05
0.0399832
-5.13813e-05
0.0399808
-4.42358e-05
0.0399785
-3.63526e-05
0.0399767
-2.86687e-05
0.0399766
-2.17246e-05
0.0399837
-1.89602e-05
0.0400083
-1.20907e-05
0.0399833
-4.11634e-06
0.0399755
3.90649e-06
0.0399754
1.10505e-05
0.0399769
1.6807e-05
0.0399791
2.28877e-05
0.0399804
3.02224e-05
0.0399806
3.47697e-05
0.0399849
3.85064e-05
0.0399872
4.14286e-05
0.0399897
4.35547e-05
0.0399921
4.2907e-05
0.0399944
4.35355e-05
0.0399966
4.54814e-05
0.0399967
4.48107e-05
0.0400007
4.35756e-05
0.0400025
4.18401e-05
0.0400041
3.96631e-05
0.0400055
3.51027e-05
0.0400088
2.22195e-05
0.0400279
2.10621e-05
0.0400328
1.96561e-05
0.0400116
1.60584e-05
0.0400103
1.4305e-05
0.0400089
2.043e-05
0.0399993
1.64544e-05
0.0399997
1.2405e-05
0.0399999
8.30306e-06
0.0400001
4.16737e-06
0.0400003
0.0400004
-8.29912e-06
0.040019
-1.65651e-05
0.0400169
-2.4739e-05
0.0400186
-3.27724e-05
0.0400181
-4.06158e-05
0.0400174
-4.82156e-05
0.0400165
-5.35154e-05
0.0400154
-5.24506e-05
0.0400182
-5.69707e-05
0.0400266
-6.10002e-05
0.0400229
-6.64722e-05
0.0400209
-6.73169e-05
0.0400206
-6.93988e-05
0.0400499
-8.67105e-05
0.0400392
-8.91737e-05
0.0400122
-8.47041e-05
0.0399968
-6.52732e-05
0.0399673
-8.07289e-05
0.0399875
-8.30605e-05
0.0399996
-8.62475e-05
0.0400315
-8.43143e-05
0.0400015
-7.9252e-05
0.0399835
-7.30992e-05
0.0399796
-6.59198e-05
0.039976
-5.78226e-05
0.0399727
-4.87224e-05
0.0399694
-3.93731e-05
0.0399674
-2.93451e-05
0.0399666
-2.06268e-05
0.039975
-1.58915e-05
0.0400036
-7.10118e-06
0.0399745
2.90255e-06
0.0399655
1.22306e-05
0.0399661
2.13237e-05
0.0399678
3.02466e-05
0.0399702
3.74934e-05
0.0399732
4.17853e-05
0.0399763
4.70716e-05
0.0399796
5.13328e-05
0.039983
5.65705e-05
0.0399844
5.88133e-05
0.0399898
6.01034e-05
0.0399931
6.05001e-05
0.0399962
5.80735e-05
0.0399992
5.88892e-05
0.0399999
5.70372e-05
0.0400043
5.45869e-05
0.0400065
5.16165e-05
0.0400085
3.62045e-05
0.0400242
1.64355e-05
0.0400476
3.03109e-05
0.0400189
2.79209e-05
0.040014
2.5323e-05
0.0400129
2.8554e-05
0.0400056
2.36471e-05
0.0400042
1.86346e-05
0.0400047
1.35438e-05
0.040005
8.39738e-06
0.0400053
5.21647e-06
0.0400034
0.0400056
-7.54656e-06
0.0400266
-1.906e-05
0.0400284
-2.84662e-05
0.040028
-3.571e-05
0.0400253
-4.47386e-05
0.0400264
-5.34884e-05
0.0400253
-6.18915e-05
0.0400238
-6.58861e-05
0.0400222
-6.7391e-05
0.0400282
-7.43341e-05
0.0400298
-8.06254e-05
0.0400272
-8.22042e-05
0.0400221
-6.29557e-05
0.0400307
-8.86546e-05
0.0400649
-0.000105429
0.0400289
-0.000103106
0.0399945
-9.56364e-05
0.0399599
-9.68602e-05
0.0399888
-9.67586e-05
0.0399995
-9.9278e-05
0.040034
-9.64364e-05
0.0399987
-9.0253e-05
0.0399773
-8.2744e-05
0.0399721
-7.40093e-05
0.0399673
-6.41534e-05
0.0399628
-5.33311e-05
0.0399586
-4.1736e-05
0.0399558
-2.95801e-05
0.0399544
-1.88886e-05
0.0399643
-1.17852e-05
0.0399965
-8.92236e-07
0.0399636
1.09077e-05
0.0399537
2.22829e-05
0.0399547
3.28411e-05
0.0399572
4.3415e-05
0.0399596
5.18783e-05
0.0399647
5.91485e-05
0.039969
6.51651e-05
0.0399736
6.9915e-05
0.0399782
7.14112e-05
0.0399829
7.56938e-05
0.0399855
7.68303e-05
0.039992
7.68877e-05
0.0399962
7.59681e-05
0.0400001
7.41673e-05
0.0400017
7.15766e-05
0.0400069
6.82943e-05
0.0400098
6.0427e-05
0.0400164
4.40569e-05
0.0400406
4.12748e-05
0.0400504
4.01104e-05
0.0400201
3.66633e-05
0.0400175
4.09888e-05
0.0400086
3.71327e-05
0.0400095
3.1132e-05
0.0400102
2.50231e-05
0.0400108
1.88352e-05
0.0400112
1.2592e-05
0.0400115
6.31426e-06
0.0400097
0.0400119
-1.08201e-05
0.0400374
-2.16002e-05
0.0400392
-3.0261e-05
0.0400366
-4.27484e-05
0.0400378
-5.09897e-05
0.0400347
-6.09232e-05
0.0400352
-7.04734e-05
0.0400334
-7.95622e-05
0.0400312
-8.00931e-05
0.0400287
-8.59977e-05
0.0400357
-9.31737e-05
0.0400343
-9.95113e-05
0.0400285
-9.89109e-05
0.0400301
-0.000111167
0.0400772
-0.000116306
0.0400341
-0.000108203
0.0399864
-0.000112724
0.0399644
-0.000113747
0.0399898
-0.00011121
0.0399969
-0.000113038
0.0400358
-0.00010927
0.0399949
-0.000101886
0.0399699
-9.29299e-05
0.0399632
-8.2494e-05
0.0399568
-7.07131e-05
0.039951
-5.77847e-05
0.0399456
-4.3925e-05
0.0399419
-2.95983e-05
0.0399401
-1.60937e-05
0.0399508
-6.78428e-06
0.0399872
6.44138e-06
0.0399504
2.04456e-05
0.0399397
3.40477e-05
0.0399411
4.64102e-05
0.0399449
5.63467e-05
0.0399497
6.6099e-05
0.039955
7.43717e-05
0.0399607
8.31091e-05
0.0399648
8.83071e-05
0.039973
9.19965e-05
0.0399792
9.22256e-05
0.0399853
9.50933e-05
0.0399891
9.47058e-05
0.0399966
9.31704e-05
0.0400016
8.86139e-05
0.0400062
8.71561e-05
0.0400084
8.0934e-05
0.040016
6.20479e-05
0.0400352
3.666e-05
0.040066
5.67263e-05
0.0400304
5.24192e-05
0.0400244
5.58346e-05
0.040014
4.90062e-05
0.0400154
4.19934e-05
0.0400165
3.484e-05
0.0400174
2.75821e-05
0.040018
2.22509e-05
0.0400165
1.48669e-05
0.0400189
5.45006e-06
0.0400191
0.0400173
-1.21237e-05
0.0400495
-2.22019e-05
0.0400493
-3.61598e-05
0.0400506
-4.59196e-05
0.0400476
-5.9423e-05
0.0400482
-7.05868e-05
0.0400464
-7.93297e-05
0.0400421
-8.95707e-05
0.0400415
-9.92107e-05
0.0400383
-9.81322e-05
0.0400347
-0.000104254
0.0400405
-0.000113444
0.0400377
-0.000117572
0.0400342
-0.000112475
0.0400721
-0.00012007
0.0400417
-0.000102302
0.0399686
-0.00012485
0.0399869
-0.000127694
0.0399926
-0.000128748
0.039998
-0.0001259
0.040033
-0.000121159
0.0399901
-0.000114506
0.0399633
-0.000103996
0.0399527
-9.17073e-05
0.0399445
-7.78217e-05
0.0399372
-6.2542e-05
0.0399304
-4.59562e-05
0.0399254
-2.89819e-05
0.0399231
-1.29632e-05
0.0399347
-9.48477e-07
0.0399751
1.50902e-05
0.0399344
3.15547e-05
0.0399232
4.70039e-05
0.0399256
6.15532e-05
0.0399303
7.51723e-05
0.0399361
8.62916e-05
0.0399438
9.56024e-05
0.0399514
0.000101054
0.0399594
0.000108648
0.0399654
0.000112439
0.0399754
0.000114519
0.0399832
0.000112995
0.0399906
0.000114004
0.0399956
0.000111707
0.0400039
0.000108252
0.0400097
0.000101797
0.0400148
9.44778e-05
0.0400234
7.84503e-05
0.0400513
7.18544e-05
0.0400725
7.07156e-05
0.0400315
7.32052e-05
0.0400219
6.53867e-05
0.0400219
5.73325e-05
0.0400235
4.91023e-05
0.0400247
4.07415e-05
0.0400257
3.42889e-05
0.0400245
2.37685e-05
0.0400271
1.72085e-05
0.0400255
8.62086e-06
0.0400277
0.040026
-1.3466e-05
0.040063
-2.68877e-05
0.0400627
-3.81734e-05
0.0400619
-5.32629e-05
0.0400627
-6.40644e-05
0.040059
-7.65185e-05
0.0400588
-8.85231e-05
0.0400541
-9.99871e-05
0.0400529
-0.000110804
0.0400491
-0.000120859
0.0400447
-0.000120017
0.0400396
-0.000126161
0.0400438
-0.000131193
0.0400393
-0.000100921
0.0400418
-0.000128932
0.0400697
-0.000139511
0.0399792
-0.000146215
0.0399936
-0.000146997
0.0399934
-0.000141704
0.0399927
-0.000132215
0.0400235
-0.000136465
0.0399944
-0.000128485
0.0399553
-0.000116288
0.0399405
-0.000101993
0.0399302
-8.576e-05
0.0399209
-6.78688e-05
0.0399125
-4.86362e-05
0.0399061
-2.86558e-05
0.0399031
-9.36123e-06
0.0399154
5.72586e-06
0.0399601
2.4528e-05
0.0399156
4.37633e-05
0.039904
6.21293e-05
0.0399073
7.84777e-05
0.039914
9.2135e-05
0.0399224
0.000104718
0.0399313
0.000117095
0.039939
0.000125235
0.0399512
0.000129161
0.0399615
0.000134949
0.0399697
0.000136729
0.0399814
0.000136655
0.0399907
0.000134915
0.0399973
0.000131682
0.0400072
0.000127157
0.0400142
0.00011753
0.0400245
9.09844e-05
0.0400499
7.17028e-05
0.0400706
8.97384e-05
0.0400545
9.12737e-05
0.04003
8.44306e-05
0.0400287
7.52949e-05
0.040031
6.59411e-05
0.0400328
5.84328e-05
0.0400322
4.88096e-05
0.0400353
3.71153e-05
0.0400362
2.93753e-05
0.0400348
1.7602e-05
0.0400372
9.81681e-06
0.0400355
0.0400358
-1.48509e-05
0.0400778
-2.96581e-05
0.0400775
-4.43283e-05
0.0400766
-5.67851e-05
0.0400751
-7.29628e-05
0.0400751
-8.4761e-05
0.0400706
-0.000100101
0.0400695
-0.00011086
0.0400637
-0.000122952
0.0400612
-0.000134228
0.040056
-0.000144556
0.0400499
-0.000143768
0.040043
-0.00014973
0.0400452
-0.000148302
0.0400404
-0.0001451
0.0400665
-0.000164124
0.0399982
-0.000167136
0.0399966
-0.000163965
0.0399902
-0.000154444
0.0399832
-0.000120443
0.0399895
-0.000139585
0.0400135
-0.000142187
0.0399579
-0.000130197
0.0399285
-0.000113688
0.0399137
-9.48592e-05
0.0399021
-7.38153e-05
0.0398914
-5.15471e-05
0.0398839
-2.79421e-05
0.0398795
-5.31627e-06
0.0398928
1.32959e-05
0.0399414
3.54886e-05
0.0398934
5.80876e-05
0.0398814
7.88897e-05
0.0398865
9.8095e-05
0.0398948
0.000115572
0.0399049
0.00012971
0.0399171
0.00013919
0.0399296
0.000149984
0.0399404
0.000156142
0.0399553
0.000157792
0.039968
0.000161102
0.0399781
0.000160284
0.0399915
0.000155568
0.040002
0.000153192
0.0400095
0.000145398
0.040022
0.000126405
0.0400435
9.44921e-05
0.0400818
0.000103698
0.0400613
0.000114264
0.0400439
0.000106352
0.0400379
9.60758e-05
0.040039
8.55279e-05
0.0400415
7.48031e-05
0.0400435
6.39506e-05
0.0400431
5.30195e-05
0.0400463
4.4047e-05
0.0400452
3.30496e-05
0.0400458
2.20423e-05
0.0400482
1.10329e-05
0.0400465
0.0400468
-1.62806e-05
0.0400941
-3.25197e-05
0.0400937
-4.86214e-05
0.0400927
-6.45122e-05
0.040091
-7.81083e-05
0.0400887
-9.33319e-05
0.0400858
-0.000108081
0.0400842
-0.000122245
0.0400779
-0.000135705
0.0400747
-0.000148319
0.0400686
-0.000157923
0.0400596
-0.000168378
0.0400535
-0.000169465
0.0400463
-0.000173079
0.040044
-0.000144974
0.0400384
-0.000174497
0.0400278
-0.00018589
0.040008
-0.000186866
0.0399912
-0.000181191
0.0399775
-0.000164615
0.0399729
-0.000168831
0.0400177
-0.000162025
0.0399511
-0.00014612
0.0399126
-0.000127184
0.0398948
-0.00010546
0.0398804
-8.12696e-05
0.0398672
-5.5108e-05
0.0398577
-2.77413e-05
0.0398522
-8.29617e-07
0.0398659
2.18682e-05
0.0399187
4.79854e-05
0.0398673
7.40169e-05
0.0398554
9.8459e-05
0.039862
0.000120211
0.039873
0.000137921
0.0398872
0.000155718
0.0398993
0.000168304
0.039917
0.00017568
0.0399331
0.000183934
0.0399471
0.000187254
0.0399647
0.000185875
0.0399795
0.000186069
0.0399913
0.000182141
0.0400059
0.000176369
0.0400153
0.000163057
0.0400353
0.000142494
0.040064
0.000132898
0.0400914
0.000140488
0.0400538
0.000131444
0.040053
0.000119943
0.0400494
0.000108114
0.0400509
9.60674e-05
0.0400536
8.58887e-05
0.0400537
7.16291e-05
0.0400573
6.13439e-05
0.0400566
4.70491e-05
0.0400595
3.47693e-05
0.0400581
2.45097e-05
0.0400585
1.22625e-05
0.0400588
0.0400591
-1.77543e-05
0.0401119
-3.34635e-05
0.0401095
-5.1049e-05
0.0401102
-6.84268e-05
0.0401084
-8.55193e-05
0.0401058
-0.000102239
0.0401026
-0.000118487
0.0401005
-0.000134148
0.0400935
-0.000149094
0.0400896
-0.000161173
0.0400807
-0.00017623
0.0400746
-0.000188065
0.0400653
-0.000196465
0.0400547
-0.000195214
0.0400427
-0.000198113
0.0400413
-0.000206609
0.0400363
-0.000210719
0.0400121
-0.000210073
0.0399906
-0.000206375
0.0399738
-0.000199367
0.0399659
-0.000194719
0.0400131
-0.000182487
0.0399389
-0.00016455
0.0398946
-0.000142975
0.0398732
-0.000117985
0.0398554
-8.9997e-05
0.0398392
-5.93558e-05
0.039827
-2.73879e-05
0.0398202
4.10793e-06
0.0398344
3.15926e-05
0.0398913
6.22899e-05
0.0398366
9.27324e-05
0.0398249
0.000120696
0.0398341
0.000145568
0.0398481
0.000167719
0.0398651
0.000183293
0.0398837
0.000198974
0.0399013
0.000208819
0.0399232
0.00021299
0.0399429
0.000217733
0.0399599
0.000217388
0.0399799
0.000214287
0.0399944
0.000208817
0.0400114
0.000195351
0.0400288
0.000162266
0.0400684
0.000137907
0.0400884
0.000162397
0.0400669
0.000158096
0.0400581
0.00014525
0.0400658
0.000134002
0.0400606
0.000120506
0.0400643
0.000106857
0.0400672
9.31453e-05
0.0400674
7.94259e-05
0.0400711
6.57375e-05
0.0400703
5.41029e-05
0.0400711
4.05207e-05
0.0400717
2.69885e-05
0.040072
1.34972e-05
0.0400723
0.0400726
-1.92701e-05
0.0401312
-3.85091e-05
0.0401287
-5.76237e-05
0.0401294
-7.65438e-05
0.0401273
-9.51927e-05
0.0401245
-0.000113484
0.0401209
-0.000129313
0.0401163
-0.000146576
0.0401108
-0.00016112
0.0401042
-0.00017883
0.0400984
-0.000191482
0.0400873
-0.000204882
0.0400787
-0.000216821
0.0400666
-0.000227003
0.0400529
-0.000227131
0.0400414
-0.000232842
0.040042
-0.000235886
0.0400152
-0.000235893
0.0399906
-0.000232457
0.0399703
-0.00022521
0.0399586
-0.000217805
0.0400057
-0.000206145
0.0399272
-0.000186084
0.0398746
-0.000161623
0.0398488
-0.000132987
0.0398268
-0.000100621
0.0398069
-6.52159e-05
0.0397916
-2.76306e-05
0.0397826
9.5141e-06
0.0397973
4.26596e-05
0.0398581
7.87585e-05
0.0398005
0.000113947
0.0397897
0.000146196
0.0398018
0.000174609
0.0398197
0.000199661
0.03984
0.00021909
0.0398643
0.00023183
0.0398885
0.000243975
0.0399111
0.000249792
0.0399371
0.000251649
0.0399581
0.000249935
0.0399816
0.000245167
0.0399992
0.000235776
0.0400208
0.000208265
0.0400563
0.000169139
0.0401075
0.000186537
0.040071
0.000188847
0.0400646
0.00017449
0.0400724
0.000163652
0.0400767
0.000146492
0.0400778
0.000133185
0.0400777
0.00011784
0.0400826
0.000102523
0.0400827
8.92923e-05
0.0400843
7.21622e-05
0.0400874
5.71554e-05
0.0400861
4.22598e-05
0.0400866
2.94626e-05
0.0400848
1.47272e-05
0.040087
0.0400873
-1.88137e-05
0.04015
-4.16233e-05
0.0401515
-6.23131e-05
0.0401501
-8.08192e-05
0.0401458
-0.000101087
0.0401448
-0.000121021
0.0401408
-0.000140541
0.0401358
-0.000159517
0.0401298
-0.000177817
0.0401225
-0.000193277
0.0401139
-0.000211724
0.0401057
-0.00022692
0.0400939
-0.00023861
0.0400783
-0.000250491
0.0400648
-0.000258255
0.0400492
-0.000259441
0.0400431
-0.000265745
0.0400215
-0.000264705
0.0399895
-0.000261837
0.0399675
-0.000252681
0.0399495
-0.000228783
0.0399818
-0.000229713
0.0399281
-0.000211451
0.0398563
-0.000183867
0.0398212
-0.00015113
0.039794
-0.000113738
0.0397695
-7.24916e-05
0.0397504
-2.86878e-05
0.0397388
1.54039e-05
0.0397532
5.53231e-05
0.0398182
9.78624e-05
0.0397579
0.000138879
0.0397487
0.000176334
0.0397644
0.000208762
0.0397873
0.000234593
0.0398142
0.000257938
0.039841
0.000273611
0.0398729
0.000283811
0.0399009
0.000288932
0.039932
0.000289442
0.0399576
0.000285923
0.0399851
0.00027698
0.0400081
0.000263214
0.0400346
0.000235224
0.0400843
0.000231514
0.0401112
0.00022433
0.0400782
0.000210283
0.0400787
0.000191668
0.040091
0.000178562
0.0400898
0.000163329
0.040093
0.000146084
0.0400949
0.000128935
0.0400997
0.000111943
0.0400997
9.51407e-05
0.0401011
8.05616e-05
0.040102
6.41746e-05
0.0401025
4.79663e-05
0.0401028
2.98972e-05
0.0401029
1.59396e-05
0.0401009
0.0401032
-2.24025e-05
0.0401724
-4.4799e-05
0.0401739
-6.50925e-05
0.0401703
-8.92556e-05
0.04017
-0.000109191
0.0401647
-0.00013085
0.0401624
-0.000152134
0.0401571
-0.000172933
0.0401506
-0.000193113
0.0401427
-0.000212501
0.0401332
-0.00022893
0.0401221
-0.000246147
0.0401111
-0.000261865
0.0400941
-0.000275798
0.0400787
-0.000287508
0.0400609
-0.000296583
0.0400522
-0.000294554
0.0400195
-0.000298895
0.0399939
-0.000293048
0.0399616
-0.000278472
0.0399349
-0.000224609
0.0399279
-0.000244108
0.0399476
-0.000239579
0.0398518
-0.000210632
0.0397922
-0.0001733
0.0397567
-0.000130095
0.0397263
-8.19576e-05
0.0397023
-3.02513e-05
0.0396871
2.17847e-05
0.0397011
6.98873e-05
0.0397701
0.000120182
0.0397076
0.000168336
0.0397006
0.000211457
0.0397212
0.000248467
0.0397503
0.000279531
0.0397831
0.000300827
0.0398197
0.000319226
0.0398545
0.000327126
0.039893
0.000333023
0.0399261
0.000329609
0.039961
0.000325684
0.039989
0.000309989
0.0400238
0.000265359
0.0400792
0.00024047
0.0401092
0.000259532
0.0400922
0.000253427
0.0400843
0.000234575
0.0400975
0.000215333
0.0401103
0.000195816
0.0401093
0.000178355
0.0401105
0.000157062
0.0401162
0.000140029
0.0401168
0.000121303
0.0401185
0.00010291
0.0401195
8.48448e-05
0.04012
6.70806e-05
0.0401202
5.15815e-05
0.0401183
3.42796e-05
0.0401202
1.71193e-05
0.0401181
0.0401204
-2.40031e-05
0.0401964
-4.80165e-05
0.0401979
-7.19594e-05
0.0401943
-9.37814e-05
0.0401918
-0.000119461
0.0401904
-0.000140895
0.0401839
-0.000164034
0.0401803
-0.000186766
0.0401733
-0.000208963
0.0401649
-0.000230467
0.0401547
-0.000251085
0.0401428
-0.000268567
0.0401286
-0.000288643
0.0401141
-0.000302937
0.040093
-0.00031704
0.040075
-0.000328422
0.0400636
-0.000336579
0.0400276
-0.000332861
0.0399902
-0.000332565
0.0399613
-0.00032493
0.0399273
-0.00029921
0.0399022
-0.000294089
0.0399425
-0.000277575
0.0398353
-0.000243157
0.0397578
-0.000200698
0.0397142
-0.000150712
0.0396763
-9.43597e-05
0.0396459
-3.35377e-05
0.0396263
2.86459e-05
0.039639
8.6763e-05
0.039712
0.000146486
0.0396479
0.000203009
0.039644
0.000252817
0.0396714
0.00029524
0.0397079
0.000329791
0.0397486
0.000354933
0.0397945
0.000371752
0.0398377
0.000380754
0.039884
0.000382773
0.0399241
0.000378733
0.039965
0.000365615
0.0400021
0.000334443
0.040055
0.000286364
0.0401273
0.000299587
0.0400959
0.000299058
0.0400927
0.000279621
0.0401037
0.00025567
0.0401215
0.000235462
0.0401305
0.000215328
0.0401294
0.000191455
0.0401343
0.000171987
0.0401357
0.000150982
0.0401378
0.000130478
0.040139
0.000110472
0.0401395
9.29425e-05
0.0401376
7.38226e-05
0.0401394
5.30469e-05
0.040139
3.65577e-05
0.0401367
1.62404e-05
0.0401384
0.0401366
-2.56099e-05
0.040222
-4.92377e-05
0.0402215
-7.68497e-05
0.0402219
-0.000102384
0.0402173
-0.000125807
0.0402138
-0.000153102
0.0402112
-0.000176151
0.0402033
-0.000200927
0.0401981
-0.000223266
0.0401872
-0.000247049
0.0401785
-0.000270063
0.0401658
-0.000292109
0.0401507
-0.000312847
0.0401349
-0.00033192
0.0401121
-0.000348871
0.0400919
-0.000361131
0.0400759
-0.00037209
0.0400386
-0.000381017
0.0399991
-0.000376979
0.0399573
-0.000371093
0.0399214
-0.000356217
0.0398873
-0.000323214
0.0399095
-0.000314965
0.039827
-0.000283
0.0397258
-0.000234876
0.0396661
-0.000177016
0.0396184
-0.000110783
0.0395797
-3.83404e-05
0.0395538
3.59392e-05
0.0395647
0.000106471
0.0396414
0.000177818
0.0395766
0.000244272
0.0395776
0.000302627
0.0396131
0.000350955
0.0396595
0.000386977
0.0397125
0.000415719
0.0397658
0.000430389
0.039823
0.000439812
0.0398745
0.000435045
0.0399288
0.000421385
0.0399787
0.000402077
0.0400214
0.000374548
0.0400825
0.00036376
0.0401381
0.00035255
0.0401071
0.000332008
0.0401132
0.000302769
0.0401329
0.000275368
0.0401489
0.000255866
0.04015
0.000230823
0.0401545
0.000208399
0.0401568
0.000184645
0.0401594
0.000161615
0.0401608
0.000139305
0.0401613
0.000119708
0.0401591
9.67191e-05
0.0401605
7.82962e-05
0.0401578
5.83198e-05
0.040159
3.86938e-05
0.0401563
1.93034e-05
0.0401578
0.0401559
-2.72077e-05
0.0402492
-5.44664e-05
0.0402488
-7.97112e-05
0.0402471
-0.000106958
0.0402446
-0.000136191
0.040243
-0.000161344
0.0402363
-0.000188407
0.0402304
-0.0002153
0.040225
-0.000241926
0.0402138
-0.000268154
0.0402048
-0.000293808
0.0401914
-0.00031866
0.0401755
-0.000340405
0.0401566
-0.000362663
0.0401344
-0.000380996
0.0401102
-0.000396836
0.0400917
-0.000413271
0.040055
-0.000423626
0.0400094
-0.000428882
0.0399625
-0.000419743
0.0399122
-0.000401089
0.0398687
-0.000331462
0.0398399
-0.000347702
0.0398433
-0.000330263
0.0397084
-0.000277923
0.0396138
-0.000210853
0.0395514
-0.000132446
0.0395013
-4.62611e-05
0.0394676
4.36255e-05
0.0394748
0.000129753
0.0395553
0.000215567
0.0394907
0.00029463
0.0394985
0.000362445
0.0395453
0.000417216
0.0396048
0.000459096
0.0396707
0.000486965
0.0397379
0.000502679
0.0398073
0.00050343
0.0398738
0.000484742
0.0399475
0.000448228
0.0400152
0.000409704
0.04006
0.000388623
0.0401036
0.000409962
0.0401167
0.000391473
0.0401256
0.000362121
0.0401426
0.00033053
0.0401645
0.000303072
0.0401763
0.000276122
0.0401769
0.000250032
0.0401806
0.000222903
0.0401839
0.000196795
0.0401855
0.000171714
0.0401859
0.000149629
0.0401834
0.000124437
0.0401843
0.000104077
0.0401809
8.03974e-05
0.0401815
6.13055e-05
0.0401781
3.86295e-05
0.040179
2.02634e-05
0.0401762
0.0401762
-2.87777e-05
0.040278
-5.76323e-05
0.0402777
-8.65231e-05
0.040276
-0.000115477
0.0402735
-0.000142476
0.04027
-0.000171542
0.0402654
-0.000200643
0.0402595
-0.000229724
0.040254
-0.000258748
0.0402428
-0.000287576
0.0402336
-0.000314056
0.0402179
-0.000341988
0.0402034
-0.000369133
0.0401838
-0.00039509
0.0401603
-0.000417433
0.0401326
-0.000431616
0.0401059
-0.000454279
0.0400777
-0.00047307
0.0400282
-0.000482672
0.0399721
-0.00048564
0.0399152
-0.000470286
0.0398533
-0.000442616
0.0398122
-0.000427524
0.0398282
-0.000391861
0.0396727
-0.000332953
0.0395549
-0.000255289
0.0394737
-0.000162236
0.0394082
-5.79021e-05
0.0393633
5.14042e-05
0.0393655
0.000157856
0.0394489
0.000261817
0.0393868
0.000355881
0.0394045
0.000435389
0.0394658
0.000497626
0.0395425
0.00054263
0.0396257
0.000568551
0.039712
0.000580317
0.0397955
0.000565112
0.039889
0.000540723
0.0399719
0.000523563
0.0400324
0.000484114
0.0400994
0.000475727
0.040112
0.000462409
0.04013
0.000431895
0.0401561
0.000393041
0.0401814
0.000354566
0.040203
0.000326619
0.0402043
0.000295889
0.0402077
0.000264549
0.0402119
0.000234627
0.0402138
0.000208144
0.040212
0.000181014
0.040213
0.000155185
0.0402092
0.000130504
0.040209
0.000106838
0.0402046
8.60409e-05
0.0402023
6.19174e-05
0.0402022
4.2338e-05
0.0401986
2.11e-05
0.0401974
0.0401973
-3.02989e-05
0.0403083
-6.07031e-05
0.0403081
-9.1196e-05
0.0403065
-0.000119801
0.0403021
-0.000150584
0.0403008
-0.000181551
0.0402964
-0.000214725
0.0402926
-0.00024405
0.0402834
-0.000275533
0.0402743
-0.000305077
0.0402631
-0.000338607
0.0402514
-0.000367903
0.0402327
-0.000398739
0.0402146
-0.000428825
0.0401904
-0.000457661
0.0401614
-0.000480691
0.0401289
-0.000506832
0.0401038
-0.000527293
0.0400487
-0.000542814
0.0399877
-0.000551569
0.039924
-0.00055146
0.0398532
-0.000529999
0.0397907
-0.000497692
0.0397959
-0.000468556
0.0396436
-0.000402758
0.0394891
-0.000312336
0.0393833
-0.000201472
0.0392973
-7.46672e-05
0.0392365
6.13948e-05
0.0392294
0.000194414
0.0393158
0.00031949
0.0392617
0.000432674
0.0392913
0.000525519
0.0393729
0.000595226
0.0394728
0.000641076
0.0395798
0.000667355
0.0396857
0.00065969
0.0398032
0.000636393
0.0399123
0.000622063
0.0399862
0.000605791
0.0400486
0.000579022
0.0401262
0.00054993
0.0401411
0.000510852
0.0401691
0.000469229
0.0401978
0.000426051
0.0402246
0.000387943
0.0402411
0.000351351
0.0402409
0.00031667
0.0402423
0.000281954
0.0402466
0.000249202
0.0402466
0.000218344
0.0402429
0.000189249
0.0402421
0.000161763
0.0402367
0.000137712
0.040233
0.000110868
0.0402314
8.70648e-05
0.0402261
6.60928e-05
0.0402232
4.37343e-05
0.0402209
2.17846e-05
0.0402194
0.040219
-3.17472e-05
0.04034
-6.16125e-05
0.0403379
-9.36383e-05
0.0403386
-0.00012789
0.0403364
-0.000160399
0.0403333
-0.000193233
0.0403292
-0.000224422
0.0403238
-0.000258023
0.040317
-0.000292012