/*--------------------------------*- C++ -*----------------------------------*\
  =========                 |
  \\      /  F ield         | OpenFOAM: The Open Source CFD Toolbox
   \\    /   O peration     | Website:  https://openfoam.org
    \\  /    A nd           | Version:  12
     \\/     M anipulation  |
\*---------------------------------------------------------------------------*/
FoamFile
{
    format      ascii;
    class       volVectorField;
    location    "440";
    object      U;
}
// * * * * * * * * * * * * * * * * * * * * * * * * * * * * * * * * * * * * * //

dimensions      [0 1 -1 0 0 0 0];

internalField   nonuniform List<vector> 
16227
(
(2 -1.31954e-05 -5.42921e-23)
(2 -3.94825e-05 5.4778e-23)
(2 -6.56049e-05 -5.47782e-23)
(2 -9.1467e-05 -5.57193e-23)
(2 -0.000116945 5.57195e-23)
(2 -0.000141903 5.72561e-23)
(2 -0.000166227 9.96405e-25)
(2 -0.000189764 -1.17611e-22)
(2 -0.000212349 1.80656e-22)
(2 -0.000233799 -1.21285e-22)
(2 -0.000253932 0)
(2 -0.000272578 1.28624e-22)
(2 -0.000289541 0)
(2 -0.000304641 0)
(2 -0.00031764 0)
(2 -0.000328341 0)
(2 -0.000336554 0)
(2 -0.000342104 0)
(2 -0.000344843 0)
(2 -0.000344654 0)
(2 -0.000341459 -1.64957e-22)
(2 -0.000335226 -3.84831e-24)
(2 -0.000325981 1.68804e-22)
(2 -0.000313813 0)
(2 -0.000298872 -1.79421e-22)
(2 -0.000281373 1.79421e-22)
(2 -0.000261593 0)
(2 -0.000239854 9.34372e-23)
(2 -0.000216545 0)
(2 -0.000192085 0)
(2 -0.000166867 0)
(2 -0.000141349 0)
(2 -0.000115951 0)
(2 -9.10887e-05 1.96986e-22)
(2 -6.7136e-05 4.30148e-25)
(2 -4.44312e-05 -1.97422e-22)
(2 -2.32551e-05 0)
(2 -3.8438e-06 1.97156e-22)
(2 1.36279e-05 -5.32025e-25)
(2 2.90389e-05 -1.96628e-22)
(2 4.23218e-05 0)
(2 5.34589e-05 0)
(2 6.24762e-05 0)
(2 6.94365e-05 0)
(2 7.44285e-05 0)
(2 7.75673e-05 0)
(2 7.89862e-05 0)
(2 7.88338e-05 0)
(2 7.72532e-05 0)
(2 7.43892e-05 0)
(2 7.0395e-05 0)
(2 6.54057e-05 0)
(2 5.95709e-05 0)
(2 5.30154e-05 0)
(2 4.5837e-05 -9.02725e-23)
(2 3.81517e-05 9.02772e-23)
(2 3.00738e-05 0)
(2 2.17026e-05 0)
(2 1.31246e-05 0)
(2 4.38757e-06 8.93553e-23)
(2.00006 -5.06005e-05 3.1278e-25)
(2.00006 -0.000151605 0)
(2.00006 -0.000251962 0)
(2.00006 -0.000351331 0)
(2.00006 -0.000449186 -9.43324e-23)
(2.00006 -0.000545074 0)
(2.00006 -0.000638498 0)
(2.00006 -0.000728924 -2.99416e-22)
(2.00005 -0.000815702 2.00416e-22)
(2.00005 -0.0008982 -4.18957e-22)
(2.00005 -0.000975705 1.70082e-21)
(2.00004 -0.00104755 -1.0821e-21)
(2.00004 -0.00111301 5.51583e-22)
(2.00004 -0.00117134 0)
(2.00003 -0.00122173 0)
(2.00002 -0.00126344 0)
(2.00002 -0.00129575 0)
(2.00001 -0.00131804 0)
(2.00001 -0.00132976 0)
(2 -0.00133049 0)
(1.99999 -0.00131995 0)
(1.99998 -0.00129801 0)
(1.99998 -0.00126483 0)
(1.99997 -0.00122075 0)
(1.99996 -0.00116635 0)
(1.99996 -0.00110245 -3.08857e-22)
(1.99995 -0.0010301 3.08867e-22)
(1.99995 -0.000950541 -1.5794e-22)
(1.99994 -0.000865169 0)
(1.99994 -0.00077549 0)
(1.99994 -0.000683025 0)
(1.99994 -0.000589474 0)
(1.99994 -0.000496414 0)
(1.99994 -0.000405325 0)
(1.99994 -0.00031757 0)
(1.99995 -0.00023433 -3.34342e-22)
(1.99995 -0.00015664 1.95508e-25)
(1.99996 -8.53033e-05 5.86647e-25)
(1.99996 -2.09309e-05 9.33575e-25)
(1.99997 3.60637e-05 3.32679e-22)
(1.99997 8.54763e-05 3.29969e-22)
(1.99997 0.000127274 -3.29979e-22)
(1.99998 0.000161577 0)
(1.99998 0.000188642 0)
(1.99999 0.000208816 0)
(1.99999 0.000222517 0)
(2 0.000230252 0)
(2 0.000232548 0)
(2 0.000229928 0)
(2.00001 0.000222938 0)
(2.00001 0.000212102 3.10704e-22)
(2.00001 0.000197921 -6.20351e-22)
(2.00001 0.000180891 -6.15057e-22)
(2.00001 0.000161389 6.1509e-22)
(2.00001 0.000139786 -6.1026e-22)
(2.00002 0.000116517 9.14465e-22)
(2.00002 9.19542e-05 -3.0434e-22)
(2.00002 6.64127e-05 1.51573e-22)
(2.00002 4.01913e-05 -1.51573e-22)
(2.00002 1.35057e-05 -1.28157e-25)
(2.0002 -8.68673e-05 9.13502e-23)
(2.0002 -0.000260439 0)
(2.00019 -0.000432742 0)
(2.00019 -0.000603174 0)
(2.00019 -0.000770751 9.43188e-23)
(2.00018 -0.000934595 -1.92443e-22)
(2.00018 -0.00109384 -3.41026e-24)
(2.00017 -0.00124744 2.94749e-22)
(2.00016 -0.00139428 1.00564e-22)
(2.00016 -0.00153321 4.17611e-22)
(2.00014 -0.00166298 -4.12832e-22)
(2.00013 -0.00178225 -8.61597e-22)
(2.00012 -0.00188984 1.10646e-22)
(2.0001 -0.00198449 0)
(2.00009 -0.00206469 1.17251e-22)
(2.00007 -0.0021292 0)
(2.00005 -0.0021768 0)
(2.00003 -0.0022064 0)
(2.00001 -0.00221713 -5.30848e-22)
(1.99999 -0.00220844 5.30803e-22)
(1.99997 -0.00217976 -2.79127e-22)
(1.99994 -0.00213104 2.79136e-22)
(1.99992 -0.00206263 0)
(1.9999 -0.00197529 -2.98367e-22)
(1.99988 -0.00187019 -5.78261e-24)
(1.99986 -0.00174894 3.0419e-22)
(1.99985 -0.0016135 0)
(1.99984 -0.00146619 0)
(1.99983 -0.00130963 0)
(1.99982 -0.00114657 0)
(1.99982 -0.000979843 1.64789e-22)
(1.99982 -0.000812559 -3.29109e-22)
(1.99982 -0.000647464 0)
(1.99982 -0.00048721 0)
(1.99983 -0.000334202 3.34967e-22)
(1.99984 -0.000190497 -3.34992e-22)
(1.99985 -5.78542e-05 0)
(1.99987 6.23853e-05 0)
(1.99988 0.000169254 0)
(1.9999 0.000262153 0)
(1.99991 0.000340864 0)
(1.99993 0.000405467 0)
(1.99994 0.000456311 -1.63955e-22)
(1.99996 0.000493972 0)
(1.99997 0.000519183 0)
(1.99998 0.000532816 0)
(1.99999 0.000535852 -1.58658e-22)
(2 0.000529301 3.18329e-22)
(2.00001 0.000514145 0)
(2.00002 0.00049142 1.56542e-22)
(2.00003 0.000462097 0)
(2.00003 0.000427097 3.09675e-22)
(2.00004 0.000387266 6.14597e-22)
(2.00004 0.000343213 1.50556e-22)
(2.00005 0.000295689 -6.12028e-22)
(2.00005 0.000245441 3.03948e-22)
(2.00005 0.000193071 -3.04072e-22)
(2.00005 0.000139093 0)
(2.00005 8.40083e-05 0)
(2.00006 2.82492e-05 -1.50755e-22)
(2.0004 -0.00012024 0)
(2.0004 -0.000360627 0)
(2.0004 -0.000599078 -9.1019e-23)
(2.00039 -0.000834717 0)
(2.00038 -0.00106606 -9.40765e-23)
(2.00037 -0.00129185 9.40667e-23)
(2.00036 -0.00151073 0)
(2.00035 -0.00172123 -2.99095e-22)
(2.00033 -0.00192169 2.96266e-22)
(2.00031 -0.00211044 0)
(2.00029 -0.00228568 -4.25898e-22)
(2.00026 -0.00244534 -1.29359e-21)
(2.00024 -0.00258796 -2.21886e-22)
(2.0002 -0.00271158 0)
(2.00017 -0.00281403 -1.17213e-22)
(2.00013 -0.00289355 0)
(2.00009 -0.00294842 0)
(2.00005 -0.00297713 1.03367e-21)
(2 -0.00297865 -1.03395e-21)
(1.99996 -0.00295198 0)
(1.99991 -0.00289636 -2.79543e-22)
(1.99987 -0.00281205 -6.81912e-24)
(1.99982 -0.00269962 -6.58606e-24)
(1.99978 -0.00256027 2.93018e-22)
(1.99974 -0.00239589 0)
(1.9997 -0.00220899 0)
(1.99967 -0.00200258 0)
(1.99965 -0.00178022 1.6021e-22)
(1.99963 -0.00154585 1.56635e-24)
(1.99962 -0.00130358 1.6384e-22)
(1.99961 -0.00105777 4.04037e-25)
(1.99961 -0.00081299 0)
(1.99962 -0.000573339 0)
(1.99964 -0.000342656 0)
(1.99965 -0.000124441 -3.36364e-22)
(1.99968 7.83398e-05 -7.60484e-26)
(1.99971 0.000263241 3.76077e-25)
(1.99974 0.000428471 7.81792e-25)
(1.99977 0.00057274 6.6936e-22)
(1.9998 0.000695343 -3.3407e-22)
(1.99983 0.000796153 0)
(1.99986 0.000875495 -1.65162e-22)
(1.9999 0.000934081 1.63909e-22)
(1.99993 0.000972913 0)
(1.99995 0.000993251 0)
(1.99998 0.000996535 0)
(2 0.00098432 -1.59622e-22)
(2.00003 0.000958181 0)
(2.00004 0.000919663 0)
(2.00006 0.000870341 -3.12812e-22)
(2.00008 0.000811664 -6.20064e-22)
(2.00009 0.000745031 1.23671e-21)
(2.0001 0.000671591 -6.16879e-22)
(2.00011 0.000592259 -7.6435e-22)
(2.00011 0.000508264 6.111e-22)
(2.00012 0.000420587 0)
(2.00012 0.000330032 0)
(2.00013 0.00023732 1.51011e-22)
(2.00013 0.000143124 0)
(2.00013 4.80887e-05 0)
(2.00067 -0.0001521 0)
(2.00067 -0.000456281 0)
(2.00066 -0.000757867 1.14108e-24)
(2.00066 -0.00105569 0)
(2.00064 -0.00134782 0)
(2.00063 -0.00163256 -1.8776e-22)
(2.0006 -0.0019081 -2.90755e-22)
(2.00058 -0.00217252 2.87548e-22)
(2.00055 -0.00242364 0)
(2.00052 -0.00265924 0)
(2.00048 -0.00287697 -4.23005e-22)
(2.00043 -0.00307396 2.57599e-21)
(2.00038 -0.0032486 -2.18921e-22)
(2.00033 -0.00339803 2.23407e-22)
(2.00027 -0.00351953 0)
(2.0002 -0.00361071 0)
(2.00013 -0.00366931 5.01867e-22)
(2.00006 -0.00369352 1.54956e-21)
(1.99998 -0.00368185 -7.71386e-22)
(1.9999 -0.00363256 0)
(1.99982 -0.00354519 0)
(1.99974 -0.00342025 0)
(1.99967 -0.0032584 0)
(1.9996 -0.00306139 -3.00629e-22)
(1.99953 -0.00283184 -6.12462e-24)
(1.99947 -0.00257321 -5.68021e-24)
(1.99942 -0.00228971 3.12583e-22)
(1.99938 -0.00198625 1.60753e-22)
(1.99935 -0.00166825 1.44161e-24)
(1.99933 -0.00134136 -1.63187e-22)
(1.99933 -0.00101159 4.99279e-22)
(1.99933 -0.000685165 -3.32917e-22)
(1.99935 -0.000367652 -3.36766e-22)
(1.99938 -6.41839e-05 3.36779e-22)
(1.99941 0.00022059 3.38192e-22)
(1.99946 0.000482762 -3.3814e-22)
(1.99951 0.000719157 0)
(1.99956 0.000927535 0)
(1.99962 0.00110639 -3.35153e-22)
(1.99968 0.001255 3.35121e-22)
(1.99974 0.00137344 3.31589e-22)
(1.99979 0.00146241 -1.66448e-22)
(1.99985 0.00152304 0)
(1.9999 0.0015569 0)
(1.99995 0.00156592 0)
(1.99999 0.00155218 0)
(2.00004 0.00151787 0)
(2.00007 0.00146526 0)
(2.0001 0.0013965 -1.5713e-22)
(2.00013 0.00131374 -7.78483e-22)
(2.00016 0.001219 6.22654e-22)
(2.00018 0.00111417 6.15473e-22)
(2.0002 0.00100059 -9.22066e-22)
(2.00021 0.000879663 6.09617e-22)
(2.00022 0.00075304 -6.09625e-22)
(2.00023 0.000621892 0)
(2.00024 0.00048722 0)
(2.00024 0.000349922 -4.55036e-25)
(2.00025 0.000210833 0)
(2.00025 7.07735e-05 0)
(2.00101 -0.000183279 -8.72974e-23)
(2.00101 -0.000549878 0)
(2.001 -0.000913256 2.15423e-25)
(2.00098 -0.00127195 8.9623e-23)
(2.00096 -0.00162362 0)
(2.00093 -0.00196612 1.34253e-24)
(2.0009 -0.00229721 -1.90331e-22)
(2.00086 -0.00261445 1.90278e-22)
(2.00082 -0.00291523 0)
(2.00076 -0.00319677 0)
(2.0007 -0.00345616 2.05597e-22)
(2.00063 -0.00368974 8.45733e-22)
(2.00056 -0.0038954 -4.38746e-22)
(2.00047 -0.00406956 2.24353e-22)
(2.00038 -0.00420901 0)
(2.00028 -0.00431055 -2.42934e-22)
(2.00017 -0.00437139 2.43026e-22)
(2.00006 -0.00438939 1.46613e-23)
(1.99994 -0.00436215 -1.16328e-21)
(1.99982 -0.00428751 -2.73143e-22)
(1.9997 -0.00416525 2.69908e-22)
(1.99958 -0.00399591 -7.37376e-24)
(1.99946 -0.00378022 2.88354e-22)
(1.99935 -0.00352052 0)
(1.99925 -0.00322018 0)
(1.99916 -0.00288371 0)
(1.99908 -0.00251668 0)
(1.99902 -0.00212551 -1.60791e-22)
(1.99898 -0.00171726 0)
(1.99896 -0.0012993 0)
(1.99895 -0.000879561 5.05196e-22)
(1.99897 -0.000466154 -3.35756e-22)
(1.999 -6.61509e-05 0)
(1.99905 0.000313826 0)
(1.99911 0.000667773 0)
(1.99918 0.000990807 0)
(1.99926 0.00127904 3.39337e-22)
(1.99935 0.00152976 -1.18127e-24)
(1.99944 0.00174139 -5.07185e-22)
(1.99953 0.00191328 0)
(1.99963 0.00204579 0)
(1.99972 0.00214011 3.30115e-22)
(1.9998 0.00219798 -4.94729e-22)
(1.99989 0.00222171 0)
(1.99996 0.00221394 0)
(2.00003 0.00217751 0)
(2.00009 0.00211543 0)
(2.00015 0.00203066 0)
(2.0002 0.00192607 4.69881e-22)
(2.00024 0.00180448 1.24152e-21)
(2.00028 0.00166847 -1.24226e-21)
(2.00031 0.0015202 6.13767e-22)
(2.00034 0.00136143 -3.07391e-22)
(2.00036 0.00119421 0)
(2.00038 0.00102046 1.51319e-22)
(2.00039 0.000841469 0)
(2.0004 0.000658458 0)
(2.00041 0.000472474 -1.50526e-22)
(2.00041 0.000284466 0)
(2.00042 9.54066e-05 1.49124e-22)
(2.00141 -0.000214309 1.71658e-24)
(2.0014 -0.000643032 0)
(2.00139 -0.00106794 0)
(2.00136 -0.0014873 -8.7572e-23)
(2.00134 -0.00189838 0)
(2.0013 -0.00229861 9.17784e-23)
(2.00125 -0.00268534 -9.37308e-23)
(2.0012 -0.00305557 1.87595e-22)
(2.00113 -0.00340632 0)
(2.00106 -0.00373418 -4.0327e-22)
(2.00097 -0.00403574 1.97716e-22)
(2.00087 -0.00430667 8.54718e-24)
(2.00076 -0.00454361 8.69852e-22)
(2.00064 -0.00474318 -4.51218e-22)
(2.00051 -0.00490106 -7.30056e-24)
(2.00036 -0.00501326 -1.30832e-22)
(2.00021 -0.00507644 2.48437e-21)
(2.00005 -0.00508775 -9.68182e-22)
(1.99988 -0.0050436 -1.69356e-21)
(1.99971 -0.00494196 2.41587e-21)
(1.99953 -0.00478243 2.74589e-22)
(1.99936 -0.00456546 -2.89624e-22)
(1.99919 -0.00429178 -7.50471e-24)
(1.99903 -0.0039643 2.97269e-22)
(1.99889 -0.00358719 0)
(1.99876 -0.00316618 0)
(1.99866 -0.00270825 0)
(1.99858 -0.00222155 0)
(1.99852 -0.00171504 1.66296e-22)
(1.99849 -0.00119811 0)
(1.99849 -0.000680858 -5.06176e-22)
(1.99852 -0.000173448 0)
(1.99857 0.000315153 3.42622e-22)
(1.99864 0.000776588 -3.42533e-22)
(1.99873 0.00120343 3.43246e-22)
(1.99884 0.00158977 -4.94811e-25)
(1.99897 0.00193094 -6.84204e-22)
(1.9991 0.00222387 3.41527e-22)
(1.99924 0.00246694 -1.69044e-22)
(1.99937 0.00265969 3.38101e-22)
(1.99951 0.00280296 1.67743e-22)
(1.99964 0.00289854 0)
(1.99977 0.002949 1.64565e-22)
(1.99989 0.0029575 0)
(2 0.00292759 0)
(2.0001 0.00286303 1.60558e-22)
(2.00018 0.00276769 -1.59135e-22)
(2.00026 0.00264536 0)
(2.00033 0.00249968 1.8741e-21)
(2.00039 0.00233423 1.22976e-21)
(2.00045 0.00215222 -2.47885e-21)
(2.00049 0.00195588 -6.11712e-22)
(2.00053 0.00174767 1.37227e-21)
(2.00055 0.00153026 -6.08381e-22)
(2.00058 0.00130561 -1.51292e-22)
(2.0006 0.00107522 0)
(2.00061 0.000840523 2.99426e-22)
(2.00062 0.00060264 -1.49822e-22)
(2.00063 0.00036262 0)
(2.00063 0.000121521 -6.85155e-25)
(2.00186 -0.000245556 8.55579e-23)
(2.00186 -0.000736888 0)
(2.00184 -0.00122388 0)
(2.00181 -0.00170451 8.5902e-23)
(2.00177 -0.00217572 -1.32789e-24)
(2.00172 -0.00263453 8.85268e-23)
(2.00166 -0.00307791 -9.00139e-23)
(2.00158 -0.00350236 -2.82254e-22)
(2.00149 -0.00390441 1.88349e-22)
(2.00139 -0.00428012 -3.9736e-22)
(2.00127 -0.00462546 -1.11818e-22)
(2.00114 -0.00493563 6.15378e-22)
(2.00099 -0.00520594 -1.72362e-21)
(2.00083 -0.00543262 -9.0018e-22)
(2.00065 -0.00561048 9.00421e-22)
(2.00045 -0.00573479 -1.18708e-22)
(2.00025 -0.0058016 2.95275e-21)
(2.00003 -0.00580666 -4.81418e-22)
(1.9998 -0.00574567 -5.23429e-22)
(1.99956 -0.0056163 -1.62636e-21)
(1.99932 -0.00541765 2.8004e-22)
(1.99909 -0.00515012 0)
(1.99886 -0.0048143 0)
(1.99864 -0.00441366 -3.06957e-22)
(1.99845 -0.00395319 -7.13026e-24)
(1.99828 -0.00343986 3.14301e-22)
(1.99814 -0.0028823 0)
(1.99803 -0.0022907 3.32227e-22)
(1.99796 -0.00167621 -4.986e-22)
(1.99792 -0.0010505 0)
(1.99793 -0.000426176 1.68785e-22)
(1.99797 0.00018404 -6.88638e-22)
(1.99805 0.000768963 -1.26026e-24)
(1.99816 0.00131826 6.93293e-22)
(1.99829 0.00182293 -1.70449e-25)
(1.99845 0.00227592 -3.46515e-22)
(1.99863 0.00267181 0)
(1.99881 0.00300717 3.42379e-22)
(1.999 0.00328048 -2.21119e-24)
(1.9992 0.00349162 -3.40046e-22)
(1.99939 0.00364216 -3.36187e-22)
(1.99957 0.00373467 0)
(1.99975 0.00377273 0)
(1.99991 0.0037606 -1.63679e-22)
(2.00006 0.0037029 0)
(2.00019 0.00360447 -3.20938e-22)
(2.00031 0.00347019 1.5907e-22)
(2.00042 0.00330481 -3.14834e-22)
(2.00051 0.00311289 -1.8733e-21)
(2.00059 0.00289874 -1.23446e-21)
(2.00066 0.00266584 6.20306e-22)
(2.00072 0.00241695 -4.07629e-24)
(2.00076 0.00215549 -9.12875e-22)
(2.0008 0.00188431 3.0206e-22)
(2.00083 0.00160542 0)
(2.00086 0.0013206 0)
(2.00088 0.00103139 -7.78955e-25)
(2.00089 0.000738951 0)
(2.0009 0.000444405 0)
(2.0009 0.000148822 -1.48412e-22)
(2.00239 -0.00027736 0)
(2.00238 -0.000832409 0)
(2.00235 -0.00138263 8.23782e-23)
(2.00232 -0.00192583 -8.55559e-23)
(2.00226 -0.0024586 0)
(2.0022 -0.00297758 -1.74116e-22)
(2.00212 -0.00347941 8.80208e-23)
(2.00202 -0.00396017 9.00258e-23)
(2.00191 -0.00441576 0)
(2.00178 -0.00484179 0)
(2.00162 -0.0052336 -3.02844e-22)
(2.00145 -0.00558588 1.96632e-22)
(2.00126 -0.00589286 8.60808e-22)
(2.00104 -0.00614921 2.61621e-21)
(2.00081 -0.00635005 0)
(2.00055 -0.00648929 -4.68356e-22)
(2.00028 -0.00656218 -1.95557e-21)
(1.99999 -0.00656276 -5.0413e-22)
(1.99969 -0.00648601 -1.05484e-21)
(1.99938 -0.00632888 2.56649e-22)
(1.99907 -0.00608985 -5.67115e-22)
(1.99876 -0.00576915 -8.825e-24)
(1.99845 -0.00536697 -8.54106e-24)
(1.99817 -0.00488726 3.01819e-22)
(1.99792 -0.00433587 0)
(1.99769 -0.00372111 0)
(1.99751 -0.00305358 0)
(1.99737 -0.00234568 1.68512e-22)
(1.99728 -0.0016112 -1.71145e-22)
(1.99724 -0.00086457 0)
(1.99725 -0.000121351 3.42889e-22)
(1.99732 0.000602582 -3.48209e-22)
(1.99743 0.00129344 0)
(1.99759 0.00193864 0)
(1.99778 0.00252735 5.27381e-22)
(1.998 0.00305121 -3.50501e-22)
(1.99824 0.00350413 -3.47469e-22)
(1.99849 0.00388236 6.92481e-22)
(1.99875 0.00418462 -3.45008e-22)
(1.99901 0.00441139 0)
(1.99927 0.00456516 5.04503e-22)
(1.99951 0.00464967 -3.36024e-22)
(1.99974 0.00466969 -1.65702e-22)
(1.99996 0.00463082 3.27468e-22)
(2.00015 0.00453902 0)
(2.00033 0.00440041 1.60381e-22)
(2.00049 0.00422099 -3.17181e-22)
(2.00062 0.00400661 3.14679e-22)
(2.00074 0.00376288 -1.23298e-21)
(2.00084 0.00349494 6.30986e-22)
(2.00093 0.00320629 3.06949e-22)
(2.001 0.00290065 1.51568e-22)
(2.00106 0.00258224 -1.5159e-22)
(2.00111 0.00225382 -1.50587e-22)
(2.00114 0.00191765 2.9815e-22)
(2.00117 0.00157568 -5.791e-25)
(2.00119 0.0012295 -2.97394e-22)
(2.00121 0.000880289 1.475e-22)
(2.00122 0.000529128 0)
(2.00123 0.000177075 0)
(2.00297 -0.000309947 0)
(2.00296 -0.000930274 0)
(2.00293 -0.00154541 -1.62098e-22)
(2.00288 -0.00215297 0)
(2.00282 -0.00274928 0)
(2.00274 -0.00333066 2.49862e-24)
(2.00264 -0.00389338 0)
(2.00252 -0.00443319 -9.00691e-23)
(2.00238 -0.00494545 -9.27122e-23)
(2.00221 -0.00542512 9.2674e-23)
(2.00202 -0.005867 -3.95243e-22)
(2.0018 -0.00626519 3.95216e-22)
(2.00156 -0.0066129 0)
(2.00129 -0.00690307 -2.59546e-21)
(2.00099 -0.00713156 -4.11736e-22)
(2.00067 -0.00729013 5.26819e-22)
(2.00032 -0.00737271 -2.86878e-21)
(1.99995 -0.00737149 1.01671e-21)
(1.99956 -0.00728098 -5.12633e-22)
(1.99917 -0.00709687 0)
(1.99876 -0.0068169 -5.62466e-22)
(1.99836 -0.00644065 0)
(1.99798 -0.00596771 -3.04538e-22)
(1.99761 -0.00540244 3.04681e-22)
(1.99728 -0.00475142 -3.21865e-22)
(1.99699 -0.00402455 1.57758e-22)
(1.99676 -0.00323451 0)
(1.99658 -0.00239647 -1.68587e-22)
(1.99647 -0.00152735 5.19741e-22)
(1.99643 -0.000644744 1.76344e-22)
(1.99646 0.000232001 -3.60362e-22)
(1.99655 0.00108312 -1.81103e-22)
(1.99671 0.00189179 3.55693e-22)
(1.99692 0.00264272 0)
(1.99718 0.00332307 1.78548e-22)
(1.99747 0.00392292 -1.61746e-24)
(1.99779 0.00443556 -2.24656e-24)
(1.99813 0.00485703 -3.51e-22)
(1.99848 0.00518657 3.44941e-22)
(1.99882 0.00542557 -5.17077e-22)
(1.99915 0.00557769 1.70248e-22)
(1.99947 0.0056482 0)
(1.99977 0.0056435 1.65629e-22)
(2.00004 0.00557079 -1.63781e-22)
(2.00029 0.00543763 0)
(2.00051 0.00525161 0)
(2.00071 0.00502021 3.17022e-22)
(2.00088 0.00475044 -4.26446e-24)
(2.00103 0.00444902 -1.21573e-23)
(2.00115 0.00412143 1.2289e-21)
(2.00126 0.0037718 3.05532e-22)
(2.00134 0.00340523 1.50786e-22)
(2.00141 0.00302599 1.4972e-22)
(2.00147 0.00263696 -8.73217e-25)
(2.00151 0.00224061 -1.49886e-22)
(2.00155 0.001839 0)
(2.00157 0.00143368 0)
(2.00159 0.00102577 -2.93895e-22)
(2.0016 0.000616282 0)
(2.00161 0.000206117 0)
(2.00363 -0.000343468 0)
(2.00361 -0.00103101 0)
(2.00358 -0.00171305 9.00556e-25)
(2.00352 -0.00238716 7.8795e-23)
(2.00344 -0.00304938 0)
(2.00334 -0.00369583 8.34524e-23)
(2.00322 -0.00432244 8.51649e-23)
(2.00307 -0.00492466 2.41058e-24)
(2.0029 -0.00549733 2.49975e-24)
(2.0027 -0.00603494 -9.33021e-23)
(2.00246 -0.00653145 9.32922e-23)
(2.0022 -0.00698038 9.72303e-23)
(2.0019 -0.00737435 -2.02268e-22)
(2.00156 -0.00770435 -1.68522e-21)
(2.0012 -0.00796557 -4.58261e-22)
(2.0008 -0.00814879 1.8334e-21)
(2.00036 -0.00824563 1.45592e-21)
(1.9999 -0.008247 -1.00185e-21)
(1.99942 -0.00814608 1.04293e-21)
(1.99892 -0.00793699 1.63785e-21)
(1.99841 -0.00761628 2.75356e-22)
(1.99791 -0.00718251 -6.34667e-24)
(1.99742 -0.00663436 -3.07797e-22)
(1.99696 -0.00597632 6.25518e-22)
(1.99654 -0.00521569 -3.17735e-22)
(1.99617 -0.00436401 1.64326e-22)
(1.99588 -0.00343645 0)
(1.99566 -0.00245138 1.749e-22)
(1.99552 -0.0014295 1.84223e-22)
(1.99548 -0.000392394 -1.74375e-22)
(1.99553 0.000635786 1.77342e-22)
(1.99566 0.00163071 1.793e-22)
(1.99587 0.00257182 1.7957e-22)
(1.99615 0.00344044 -3.62689e-22)
(1.99649 0.00422146 0)
(1.99688 0.00490329 -3.58314e-22)
(1.9973 0.00547858 2.8476e-24)
(1.99774 0.00594337 3.55122e-22)
(1.99818 0.00629777 -3.47803e-22)
(1.99862 0.00654449 2.70181e-24)
(1.99905 0.00668882 2.078e-24)
(1.99945 0.00673798 -5.03588e-22)
(1.99982 0.00670039 3.34702e-22)
(2.00016 0.0065853 -1.64139e-22)
(2.00047 0.00640218 -1.6188e-22)
(2.00075 0.0061604 -6.35575e-22)
(2.00099 0.00586905 1.8917e-21)
(2.0012 0.00553646 3.23202e-24)
(2.00137 0.00517057 2.48376e-21)
(2.00152 0.00477715 9.1424e-22)
(2.00165 0.00436134 -1.53577e-22)
(2.00175 0.00392933 -3.01623e-22)
(2.00183 0.0034853 -1.48669e-22)
(2.00189 0.00303231 1.48701e-22)
(2.00194 0.00257301 -1.47914e-22)
(2.00198 0.00210937 -1.46453e-22)
(2.00201 0.00164294 1.46488e-22)
(2.00203 0.00117466 6.95706e-25)
(2.00204 0.000705389 1.45723e-22)
(2.00205 0.000235795 0)
(2.00435 -0.000378019 0)
(2.00433 -0.0011349 0)
(2.00429 -0.00188611 0)
(2.00422 -0.00262917 -7.68428e-23)
(2.00413 -0.00335998 7.68203e-23)
(2.00401 -0.00407456 -8.0105e-23)
(2.00387 -0.00476848 8.00852e-23)
(2.00369 -0.00543694 0)
(2.00349 -0.0060744 0)
(2.00324 -0.00667483 9.06879e-23)
(2.00296 -0.00723156 -1.8486e-22)
(2.00265 -0.00773705 -3.0036e-24)
(2.00229 -0.00818355 4.13281e-22)
(2.00188 -0.00856061 1.27596e-21)
(2.00144 -0.00886052 8.9071e-22)
(2.00095 -0.00907553 -8.92303e-22)
(2.00042 -0.0091933 -9.61013e-22)
(1.99985 -0.00920363 6.11248e-22)
(1.99926 -0.00909759 -5.19522e-22)
(1.99864 -0.00886744 2.38456e-24)
(1.99801 -0.00850725 -1.15495e-21)
(1.99738 -0.00801385 2.34176e-21)
(1.99677 -0.00738588 -3.00506e-22)
(1.9962 -0.00662719 0)
(1.99567 -0.00574547 0)
(1.99522 -0.00475395 0)
(1.99485 -0.00367076 0)
(1.99457 -0.00251797 -1.75002e-22)
(1.99441 -0.00132115 1.89415e-22)
(1.99437 -0.000106644 3.51683e-24)
(1.99443 0.0010952 0)
(1.99462 0.00225438 1.83064e-22)
(1.9949 0.00334569 -1.86702e-22)
(1.99527 0.0043465 1.86949e-22)
(1.99572 0.00523878 3.66838e-22)
(1.99622 0.00600934 -5.50967e-22)
(1.99675 0.0066502 -3.59988e-22)
(1.99731 0.00715779 1.79644e-22)
(1.99788 0.00753348 0)
(1.99843 0.00778182 1.7349e-22)
(1.99896 0.00791042 -1.13062e-24)
(1.99946 0.00792899 -7.69099e-25)
(1.99992 0.00784849 -1.66817e-22)
(2.00034 0.0076807 -3.26034e-22)
(2.00072 0.00743739 4.87641e-22)
(2.00105 0.00712999 -1.26724e-21)
(2.00133 0.00676944 1.26706e-21)
(2.00158 0.00636579 -2.49099e-21)
(2.00179 0.00592758 2.75492e-21)
(2.00196 0.00546161 -9.15067e-22)
(2.0021 0.00497403 0)
(2.00222 0.00447175 1.48546e-22)
(2.00231 0.00395878 -1.4858e-22)
(2.00238 0.00343845 0)
(2.00244 0.00291345 0)
(2.00248 0.00238561 0)
(2.00251 0.00185633 0)
(2.00253 0.00132625 0)
(2.00254 0.000796024 0)
(2.00256 0.000265963 0)
(2.00514 -0.000413637 0)
(2.00512 -0.00124208 0)
(2.00507 -0.0020648 0)
(2.00499 -0.00287942 0)
(2.00489 -0.00368166 0)
(2.00475 -0.00446763 7.67849e-23)
(2.00458 -0.00523259 -1.55742e-22)
(2.00438 -0.00597158 7.89669e-23)
(2.00414 -0.00667876 -8.44553e-23)
(2.00385 -0.00734755 -3.29442e-24)
(2.00353 -0.00797069 8.77299e-23)
(2.00315 -0.00853979 0)
(2.00273 -0.00904617 -2.0163e-22)
(2.00225 -0.00947865 -6.3845e-22)
(2.00171 -0.00982654 4.28238e-21)
(2.00113 -0.0100818 -1.75485e-21)
(2.00049 -0.0102285 9.41775e-22)
(1.99981 -0.0102557 -9.46929e-25)
(1.99909 -0.0101515 6.48715e-22)
(1.99833 -0.00990554 -1.08571e-21)
(1.99756 -0.00950817 -2.27755e-21)
(1.99679 -0.00895486 5.09206e-24)
(1.99603 -0.00824331 0)
(1.99532 -0.0073756 -3.27586e-22)
(1.99467 -0.00635972 -1.08919e-23)
(1.9941 -0.0052107 3.39043e-22)
(1.99364 -0.00394992 0)
(1.99331 -0.00260424 0)
(1.99311 -0.00120489 -1.78718e-22)
(1.99306 0.000215291 -3.69892e-22)
(1.99316 0.00161831 3.7823e-22)
(1.9934 0.00296696 -1.90839e-22)
(1.99378 0.00423012 0)
(1.99426 0.00538045 -5.63835e-22)
(1.99483 0.00639647 1.86709e-22)
(1.99547 0.0072632 3.66372e-22)
(1.99615 0.00797221 -3.69663e-22)
(1.99686 0.00852097 1.80075e-22)
(1.99756 0.00891266 1.7468e-22)
(1.99825 0.00915442 -5.30666e-22)
(1.9989 0.00925695 -1.16261e-24)
(1.99951 0.00923319 -7.47728e-25)
(2.00007 0.00909739 1.66692e-22)
(2.00058 0.00886434 -4.06423e-26)
(2.00103 0.00854869 0)
(2.00142 0.00816433 7.02816e-24)
(2.00176 0.00772408 1.26143e-21)
(2.00204 0.0072395 -2.46366e-21)
(2.00228 0.00671998 1.35259e-22)
(2.00248 0.0061742 -1.51695e-22)
(2.00264 0.00560879 0)
(2.00276 0.005031 1.47226e-22)
(2.00286 0.00444486 -1.47265e-22)
(2.00294 0.00385383 0)
(2.003 0.00326048 0)
(2.00304 0.00266639 0)
(2.00307 0.00207271 1.43267e-22)
(2.00309 0.00147971 -1.43304e-22)
(2.0031 0.00088769 0)
(2.00312 0.000296458 0)
(2.006 -0.000450315 0)
(2.00598 -0.00135245 0)
(2.00592 -0.00224904 0)
(2.00584 -0.0031378 0)
(2.00572 -0.00401445 0)
(2.00556 -0.00487523 -7.31078e-23)
(2.00537 -0.00571522 1.48448e-22)
(2.00514 -0.00652936 2.65407e-24)
(2.00486 -0.00731164 3.03281e-24)
(2.00454 -0.00805491 8.78421e-23)
(2.00416 -0.00875151 -2.57048e-22)
(2.00372 -0.00939222 -4.20525e-24)
(2.00323 -0.00996724 9.24166e-23)
(2.00267 -0.0104646 -2.06679e-22)
(2.00204 -0.0108716 -1.25127e-21)
(2.00135 -0.0111768 -1.31206e-21)
(2.0006 -0.0113634 -3.10307e-23)
(1.99978 -0.011418 9.50836e-23)
(1.99891 -0.011325 3.73845e-22)
(1.998 -0.0110705 -1.64366e-21)
(1.99707 -0.010641 -1.73985e-21)
(1.99612 -0.0100296 -5.96523e-22)
(1.9952 -0.00923147 0)
(1.99432 -0.00824605 -3.33678e-22)
(1.99351 -0.0070813 -1.21665e-23)
(1.9928 -0.00575388 3.46525e-22)
(1.99224 -0.0042891 1.842e-22)
(1.99182 -0.00271938 0)
(1.99159 -0.00108349 3.85814e-22)
(1.99154 0.000577744 -5.83833e-22)
(1.99168 0.00221616 1.93222e-22)
(1.992 0.00378544 -3.89761e-22)
(1.99248 0.00524705 5.80356e-22)
(1.9931 0.0065675 -2.34094e-24)
(1.99383 0.0077216 -1.95638e-22)
(1.99464 0.00869237 1.87825e-22)
(1.9955 0.00947145 0)
(1.99637 0.010058 0)
(1.99724 0.0104579 -1.78395e-22)
(1.99808 0.0106819 3.56073e-22)
(1.99888 0.010745 1.73191e-22)
(1.99962 0.010664 -6.86967e-25)
(2.00029 0.0104575 -3.34398e-22)
(2.00089 0.0101439 -4.85996e-22)
(2.00142 0.00974119 1.93579e-21)
(2.00187 0.00926619 -1.26838e-21)
(2.00226 0.00873386 6.18099e-22)
(2.00259 0.0081573 1.84405e-21)
(2.00286 0.00754704 -2.12926e-21)
(2.00307 0.0069137 -3.00859e-22)
(2.00325 0.00626376 0)
(2.00338 0.00560501 -1.45726e-22)
(2.00349 0.0049414 1.45777e-22)
(2.00357 0.00427637 0)
(2.00362 0.00361218 1.42787e-22)
(2.00367 0.00295007 -1.42826e-22)
(2.00369 0.00229082 0)
(2.00371 0.0016341 0)
(2.00373 0.000979783 0)
(2.00374 0.000327087 0)
(2.00694 -0.000487983 0)
(2.00692 -0.00146585 0)
(2.00685 -0.00243856 0)
(2.00676 -0.00340395 0)
(2.00662 -0.00435794 0)
(2.00645 -0.00529698 0)
(2.00624 -0.00621604 -7.13741e-23)
(2.00598 -0.0071102 -2.7255e-24)
(2.00566 -0.00797322 -8.03161e-23)
(2.0053 -0.00879778 7.36386e-23)
(2.00486 -0.00957563 -8.86212e-23)
(2.00437 -0.0102969 1.69309e-22)
(2.0038 -0.0109506 -1.87755e-22)
(2.00315 -0.0115239 -1.05503e-23)
(2.00243 -0.012002 1.82722e-21)
(2.00162 -0.0123701 -4.44115e-22)
(2.00074 -0.0126107 -9.39561e-22)
(1.99978 -0.0127063 -1.50937e-22)
(1.99875 -0.0126373 -2.89746e-23)
(1.99766 -0.0123852 1.61223e-21)
(1.99653 -0.0119318 -1.82014e-23)
(1.99539 -0.0112663 -3.09957e-22)
(1.99426 -0.0103802 4.70705e-22)
(1.99317 -0.00926858 1.68412e-22)
(1.99218 -0.00793863 0)
(1.99131 -0.00640829 1.83486e-22)
(1.9906 -0.00470731 -1.84328e-22)
(1.99009 -0.00287522 3.88323e-22)
(1.98981 -0.00096008 -5.76782e-22)
(1.98976 0.00098644 5.9561e-22)
(1.98995 0.00290325 -1.99628e-22)
(1.99037 0.00473186 4.01897e-22)
(1.99099 0.00642432 -2.03813e-22)
(1.99178 0.00793962 5.98256e-22)
(1.9927 0.00924804 -4.77608e-24)
(1.99372 0.0103308 -5.86705e-22)
(1.99479 0.0111804 -3.77378e-22)
(1.99587 0.0117986 3.77066e-22)
(1.99694 0.0121956 0)
(1.99796 0.012387 1.77932e-22)
(1.99892 0.012393 -1.75314e-22)
(1.9998 0.012236 -1.71716e-22)
(2.00059 0.0119396 -2.10426e-25)
(2.0013 0.0115267 0)
(2.00191 0.0110195 1.27422e-21)
(2.00243 0.0104383 -2.50913e-21)
(2.00287 0.00979944 -9.24971e-22)
(2.00323 0.00911825 -3.06726e-22)
(2.00353 0.00840719 1.48874e-22)
(2.00376 0.00767767 -1.03139e-21)
(2.00395 0.00693607 4.39626e-22)
(2.00409 0.00619085 -1.45474e-22)
(2.00419 0.00544552 0)
(2.00427 0.00470336 0)
(2.00432 0.00396612 0)
(2.00436 0.00323455 -1.40387e-22)
(2.00439 0.0025089 5.32667e-25)
(2.0044 0.00178816 1.39958e-22)
(2.00441 0.00107158 0)
(2.00443 0.000357607 0)
(2.00795 -0.000526459 -5.83252e-23)
(2.00793 -0.00158184 5.84914e-23)
(2.00786 -0.00263271 0)
(2.00776 -0.00367698 -6.10865e-23)
(2.00761 -0.00471105 6.10615e-23)
(2.00742 -0.00573165 0)
(2.00718 -0.00673394 6.69945e-23)
(2.0069 -0.00771309 2.78567e-24)
(2.00655 -0.00866286 -1.42689e-22)
(2.00614 -0.00957587 -8.02212e-23)
(2.00566 -0.0104435 7.24646e-23)
(2.0051 -0.0112552 8.06535e-23)
(2.00446 -0.0119991 0)
(2.00372 -0.0126612 0)
(2.00289 -0.0132249 -2.10671e-22)
(2.00196 -0.0136717 -6.37832e-22)
(2.00094 -0.0139833 8.86496e-22)
(1.99981 -0.0141373 -7.31231e-22)
(1.9986 -0.0141092 -3.17068e-23)
(1.99731 -0.0138749 1.07965e-21)
(1.99596 -0.0134103 4.03108e-21)
(1.99458 -0.0126988 -6.27386e-22)
(1.99321 -0.0117258 4.62328e-22)
(1.99188 -0.0104806 1.63337e-22)
(1.99065 -0.00896785 0)
(1.98957 -0.00720592 -1.8359e-22)
(1.9887 -0.00522959 0)
(1.98807 -0.00308727 2.01315e-22)
(1.98772 -0.000839249 3.80839e-24)
(1.98768 0.00144868 -8.27982e-22)
(1.98793 0.00369797 1.26606e-21)
(1.98847 0.00583445 -2.50374e-25)
(1.98927 0.00779748 -4.15432e-22)
(1.99027 0.00953695 6.6307e-24)
(1.99144 0.0110178 -1.9567e-22)
(1.99271 0.01222 5.96694e-22)
(1.99403 0.0131381 0)
(1.99536 0.0137782 0)
(1.99666 0.0141563 -3.65499e-22)
(1.99789 0.0142949 9.16941e-24)
(1.99903 0.0142211 7.07194e-22)
(2.00007 0.0139643 -7.93234e-25)
(2.001 0.0135545 2.44114e-25)
(2.00181 0.0130203 1.30108e-21)
(2.00251 0.0123884 -7.63425e-21)
(2.0031 0.0116818 3.12488e-21)
(2.00359 0.0109193 6.11836e-22)
(2.00398 0.0101201 0)
(2.0043 0.00929717 0)
(2.00455 0.00846208 5.87909e-22)
(2.00473 0.00762159 1.43557e-22)
(2.00488 0.00678439 -1.43603e-22)
(2.00498 0.00595329 0)
(2.00505 0.00513119 -1.39914e-22)
(2.00509 0.00431915 1.39963e-22)
(2.00512 0.00351725 0)
(2.00514 0.00272494 0)
(2.00515 0.0019404 1.37665e-22)
(2.00516 0.00116213 -1.37721e-22)
(2.00517 0.00038771 0)
(2.00905 -0.000565604 0)
(2.00902 -0.00169989 0)
(2.00895 -0.00283044 5.50148e-23)
(2.00883 -0.00395558 -5.4989e-23)
(2.00868 -0.00507222 0)
(2.00847 -0.00617742 0)
(2.00822 -0.00726692 -6.22029e-23)
(2.0079 -0.00833599 -2.82997e-24)
(2.00753 -0.00937864 1.33257e-22)
(2.00708 -0.0103876 -6.82475e-23)
(2.00654 -0.011354 -1.52387e-22)
(2.00592 -0.0122671 6.65158e-23)
(2.00521 -0.0131141 1.6185e-22)
(2.00438 -0.0138797 -1.84076e-22)
(2.00345 -0.0145459 -1.14467e-21)