/*--------------------------------*- C++ -*----------------------------------*\
  =========                 |
  \\      /  F ield         | OpenFOAM: The Open Source CFD Toolbox
   \\    /   O peration     | Website:  https://openfoam.org
    \\  /    A nd           | Version:  12
     \\/     M anipulation  |
\*---------------------------------------------------------------------------*/
FoamFile
{
    format      ascii;
    class       volScalarField;
    location    "400";
    object      k;
}
// * * * * * * * * * * * * * * * * * * * * * * * * * * * * * * * * * * * * * //

dimensions      [0 2 -2 0 0 0 0];

internalField   nonuniform List<scalar> 
16227
(
0.00914646
0.00914648
0.00914647
0.00914651
0.0091465
0.00914654
0.00914653
0.00914652
0.00914651
0.00914653
0.00914657
0.00914659
0.00914665
0.00914665
0.00914665
0.00914665
0.00914665
0.00914665
0.00914665
0.00914665
0.00914665
0.00914665
0.00914665
0.00914665
0.00914665
0.00914665
0.00914665
0.00914666
0.00914667
0.00914664
0.00914665
0.00914665
0.00914665
0.00914665
0.00914665
0.00914665
0.00914665
0.00914665
0.00914665
0.00914665
0.00914665
0.00914665
0.00914665
0.00914665
0.00914665
0.00914665
0.00914665
0.00914663
0.00914662
0.00914662
0.00914662
0.00914661
0.00914654
0.00914654
0.00914649
0.00914649
0.00914651
0.00914649
0.00914647
0.00914646
0.00848123
0.00848125
0.00848124
0.00848127
0.00848128
0.00848131
0.0084813
0.00848128
0.00848129
0.0084813
0.00848135
0.00848137
0.00848152
0.00848158
0.00848159
0.00848159
0.00848159
0.00848159
0.00848159
0.00848159
0.00848161
0.00848162
0.00848162
0.00848162
0.00848162
0.00848162
0.00848161
0.00848161
0.00848159
0.00848154
0.00848159
0.00848161
0.00848161
0.00848161
0.0084816
0.00848159
0.00848157
0.00848157
0.00848157
0.00848157
0.00848157
0.00848157
0.00848157
0.00848156
0.00848156
0.00848155
0.00848155
0.00848155
0.00848155
0.00848154
0.00848151
0.00848146
0.00848134
0.00848132
0.00848129
0.00848127
0.0084813
0.00848122
0.00848124
0.00848121
0.00790077
0.00790079
0.0079008
0.00790081
0.00790081
0.0079009
0.00790085
0.00790084
0.00790085
0.00790086
0.00790091
0.00790093
0.00790118
0.00790124
0.00790125
0.00790127
0.00790126
0.00790126
0.00790128
0.00790123
0.00790126
0.00790127
0.00790127
0.00790126
0.00790125
0.00790125
0.00790124
0.00790125
0.00790123
0.00790115
0.00790121
0.00790122
0.00790122
0.00790121
0.00790121
0.00790121
0.00790121
0.0079012
0.00790118
0.00790118
0.00790119
0.00790119
0.00790118
0.00790117
0.00790117
0.00790117
0.00790116
0.00790116
0.00790116
0.00790113
0.0079011
0.0079009
0.00790083
0.00790081
0.00790079
0.00790079
0.00790082
0.00790073
0.00790074
0.00790072
0.0073903
0.00739032
0.00739032
0.00739034
0.00739034
0.00739041
0.00739042
0.00739038
0.00739039
0.00739039
0.00739044
0.0073905
0.00739077
0.00739084
0.00739086
0.00739088
0.00739088
0.0073909
0.00739083
0.0073907
0.00739081
0.00739084
0.00739083
0.00739083
0.00739082
0.00739081
0.0073908
0.00739078
0.00739075
0.00739065
0.00739071
0.00739072
0.00739071
0.0073907
0.00739069
0.00739069
0.00739069
0.00739068
0.00739068
0.00739067
0.00739068
0.00739067
0.00739067
0.00739067
0.00739067
0.00739066
0.00739067
0.00739067
0.00739067
0.00739065
0.00739053
0.00739034
0.00739024
0.00739026
0.00739026
0.00739028
0.00739026
0.00739019
0.00739019
0.00739017
0.00693821
0.00693823
0.00693823
0.00693826
0.00693826
0.00693832
0.00693836
0.0069383
0.00693831
0.00693832
0.00693836
0.00693842
0.00693867
0.00693881
0.00693883
0.00693883
0.00693883
0.00693881
0.00693859
0.00693851
0.0069387
0.00693875
0.00693874
0.00693871
0.00693868
0.00693866
0.00693863
0.00693861
0.00693856
0.00693844
0.00693851
0.00693851
0.0069385
0.00693848
0.00693846
0.00693846
0.00693845
0.00693846
0.00693845
0.00693845
0.00693846
0.00693847
0.00693846
0.00693846
0.00693846
0.00693848
0.00693848
0.00693848
0.00693849
0.00693841
0.00693817
0.00693806
0.00693799
0.00693803
0.00693805
0.0069381
0.00693804
0.00693797
0.00693797
0.00693796
0.0065353
0.00653533
0.00653532
0.00653534
0.00653535
0.0065354
0.00653545
0.0065354
0.00653539
0.00653539
0.00653541
0.00653545
0.00653557
0.00653586
0.00653593
0.00653594
0.00653594
0.00653583
0.00653559
0.00653554
0.00653574
0.00653578
0.00653574
0.0065357
0.00653566
0.00653563
0.00653558
0.00653553
0.00653546
0.00653533
0.00653538
0.00653537
0.00653535
0.00653533
0.00653531
0.0065353
0.0065353
0.00653529
0.00653529
0.0065353
0.0065353
0.00653531
0.00653532
0.00653534
0.00653535
0.00653536
0.00653538
0.00653539
0.00653539
0.00653526
0.00653503
0.00653493
0.0065349
0.00653495
0.00653501
0.006535
0.00653495
0.00653489
0.0065349
0.00653488
0.00617417
0.00617419
0.00617419
0.00617421
0.00617421
0.00617426
0.00617431
0.0061743
0.00617427
0.00617427
0.00617426
0.00617427
0.00617438
0.00617465
0.00617479
0.00617481
0.00617477
0.00617447
0.00617434
0.00617432
0.00617452
0.00617454
0.00617448
0.00617442
0.00617436
0.00617429
0.00617422
0.00617415
0.00617406
0.0061739
0.00617394
0.00617392
0.00617388
0.00617385
0.00617383
0.00617381
0.0061738
0.00617381
0.00617382
0.00617384
0.00617384
0.00617386
0.00617389
0.0061739
0.00617394
0.00617396
0.00617398
0.006174
0.00617395
0.0061737
0.00617358
0.00617351
0.00617353
0.00617361
0.00617364
0.00617364
0.0061736
0.00617355
0.00617356
0.00617354
0.00584882
0.00584882
0.00584883
0.00584885
0.00584885
0.00584889
0.00584894
0.00584894
0.00584891
0.00584889
0.00584888
0.00584885
0.00584891
0.00584905
0.00584934
0.00584942
0.00584935
0.005849
0.00584888
0.00584884
0.00584904
0.00584904
0.00584895
0.00584886
0.00584876
0.00584867
0.00584857
0.00584847
0.00584834
0.00584816
0.00584818
0.00584815
0.0058481
0.00584805
0.00584802
0.00584801
0.005848
0.005848
0.00584802
0.00584804
0.00584807
0.00584809
0.00584813
0.00584817
0.00584822
0.00584825
0.00584829
0.00584831
0.0058482
0.00584797
0.00584787
0.00584785
0.00584792
0.00584798
0.00584799
0.005848
0.00584797
0.00584793
0.00584795
0.00584793
0.0055543
0.00555431
0.00555432
0.00555433
0.00555434
0.00555437
0.00555441
0.00555441
0.00555442
0.00555438
0.00555435
0.0055543
0.00555433
0.00555444
0.00555478
0.00555487
0.00555471
0.00555437
0.00555425
0.0055542
0.00555437
0.00555434
0.00555422
0.00555409
0.00555396
0.00555383
0.00555369
0.00555356
0.00555341
0.00555319
0.00555318
0.00555313
0.00555306
0.00555301
0.00555297
0.00555295
0.00555295
0.00555296
0.00555298
0.005553
0.00555305
0.0055531
0.00555315
0.0055532
0.00555326
0.00555332
0.00555337
0.00555333
0.00555309
0.005553
0.00555296
0.00555302
0.00555307
0.00555313
0.00555316
0.00555318
0.00555316
0.00555312
0.00555314
0.00555314
0.00528656
0.00528657
0.00528657
0.00528659
0.00528658
0.00528662
0.00528666
0.00528666
0.00528666
0.00528666
0.00528661
0.00528655
0.00528657
0.00528667
0.00528694
0.00528703
0.00528671
0.00528649
0.00528637
0.00528631
0.00528645
0.00528638
0.00528623
0.00528606
0.00528589
0.00528572
0.00528554
0.00528537
0.00528517
0.00528492
0.00528489
0.00528481
0.00528472
0.00528465
0.00528461
0.00528458
0.00528458
0.00528459
0.00528463
0.00528467
0.00528472
0.00528479
0.00528487
0.00528495
0.00528502
0.0052851
0.00528516
0.0052851
0.00528487
0.00528481
0.00528484
0.00528489
0.00528495
0.00528502
0.00528506
0.00528509
0.00528508
0.00528506
0.00528507
0.00528507
0.00504219
0.0050422
0.0050422
0.00504221
0.00504222
0.00504225
0.00504229
0.00504228
0.00504228
0.00504227
0.00504225
0.00504216
0.00504213
0.00504218
0.00504229
0.00504249
0.00504219
0.005042
0.00504188
0.00504178
0.00504183
0.00504176
0.00504158
0.00504137
0.00504115
0.00504093
0.0050407
0.00504048
0.00504025
0.00503996
0.00503989
0.00503978
0.00503967
0.00503958
0.00503953
0.00503951
0.00503951
0.00503953
0.00503957
0.00503964
0.00503971
0.0050398
0.0050399
0.00503999
0.00504009
0.00504018
0.00504018
0.0050401
0.00503999
0.00503997
0.00504003
0.0050401
0.00504017
0.00504026
0.00504031
0.00504035
0.00504035
0.00504033
0.00504035
0.00504035
0.00481834
0.00481835
0.00481835
0.00481836
0.00481837
0.0048184
0.00481843
0.00481844
0.00481843
0.00481841
0.00481839
0.00481832
0.00481825
0.00481825
0.00481832
0.00481848
0.00481824
0.00481805
0.00481787
0.00481773
0.00481761
0.00481761
0.00481743
0.00481717
0.00481689
0.00481662
0.00481634
0.00481607
0.00481578
0.00481544
0.00481534
0.0048152
0.00481506
0.00481496
0.0048149
0.00481487
0.00481487
0.0048149
0.00481496
0.00481504
0.00481514
0.00481525
0.00481537
0.00481551
0.00481562
0.0048157
0.00481563
0.00481563
0.00481562
0.00481563
0.00481571
0.0048158
0.00481589
0.00481599
0.00481605
0.0048161
0.00481611
0.0048161
0.00481612
0.00481613
0.0046126
0.0046126
0.00461261
0.00461262
0.00461263
0.00461266
0.00461268
0.00461269
0.00461268
0.00461267
0.00461265
0.00461258
0.00461251
0.00461243
0.00461241
0.0046124
0.00461234
0.0046122
0.00461199
0.0046118
0.0046116
0.00461159
0.00461136
0.00461105
0.00461071
0.00461037
0.00461004
0.0046097
0.00460936
0.00460898
0.00460883
0.00460865
0.00460849
0.00460837
0.00460829
0.00460827
0.00460827
0.00460831
0.0046084
0.0046085
0.00460862
0.00460877
0.00460891
0.00460907
0.0046092
0.00460927
0.00460924
0.00460931
0.00460932
0.00460936
0.00460946
0.00460958
0.00460969
0.00460979
0.00460987
0.00460992
0.00460995
0.00460995
0.00460998
0.00460998
0.0044229
0.00442292
0.00442292
0.00442293
0.00442294
0.00442297
0.00442299
0.004423
0.00442299
0.00442298
0.00442295
0.00442288
0.00442282
0.00442274
0.00442264
0.0044226
0.00442256
0.00442241
0.00442218
0.00442194
0.00442168
0.00442163
0.00442134
0.00442096
0.00442056
0.00442015
0.00441975
0.00441934
0.00441894
0.0044185
0.0044183
0.00441808
0.00441789
0.00441775
0.00441766
0.00441763
0.00441765
0.00441771
0.00441781
0.00441795
0.0044181
0.00441827
0.00441845
0.00441863
0.00441873
0.00441878
0.00441888
0.00441899
0.00441904
0.00441913
0.00441925
0.00441938
0.00441951
0.00441963
0.00441972
0.00441979
0.00441982
0.00441984
0.00441987
0.00441987
0.0042475
0.00424752
0.00424752
0.00424753
0.00424755
0.00424757
0.0042476
0.00424761
0.00424761
0.00424759
0.00424756
0.0042475
0.00424743
0.00424733
0.00424724
0.00424717
0.00424712
0.00424693
0.00424666
0.00424638
0.00424608
0.00424596
0.00424561
0.00424516
0.00424468
0.0042442
0.00424371
0.00424323
0.00424275
0.00424225
0.004242
0.00424173
0.00424151
0.00424135
0.00424125
0.00424122
0.00424125
0.00424134
0.00424146
0.00424162
0.00424181
0.00424202
0.00424224
0.00424241
0.00424245
0.00424261
0.00424277
0.00424292
0.00424303
0.00424315
0.00424331
0.00424346
0.00424361
0.00424374
0.00424384
0.00424393
0.00424397
0.004244
0.00424403
0.00424404
0.00408488
0.00408489
0.0040849
0.00408492
0.00408493
0.00408496
0.00408499
0.004085
0.004085
0.00408499
0.00408496
0.0040849
0.00408482
0.00408473
0.00408462
0.00408454
0.00408446
0.00408425
0.00408394
0.00408361
0.00408326
0.00408302
0.00408264
0.00408212
0.00408156
0.00408099
0.00408042
0.00407986
0.0040793
0.00407872
0.0040784
0.00407809
0.00407783
0.00407765
0.00407754
0.00407752
0.00407756
0.00407767
0.00407782
0.00407802
0.00407825
0.0040785
0.00407875
0.00407892
0.00407902
0.00407922
0.00407943
0.00407958
0.00407974
0.00407992
0.00408013
0.0040803
0.00408047
0.00408062
0.00408074
0.00408083
0.00408089
0.00408092
0.00408096
0.00408097
0.00393372
0.00393373
0.00393375
0.00393376
0.00393378
0.00393382
0.00393385
0.00393386
0.00393387
0.00393387
0.00393384
0.00393377
0.0039337
0.0039336
0.00393349
0.00393339
0.0039333
0.00393305
0.00393272
0.00393232
0.0039319
0.00393147
0.00393112
0.00393056
0.00392991
0.00392924
0.00392857
0.00392791
0.00392726
0.00392661
0.00392622
0.00392585
0.00392555
0.00392534
0.00392523
0.00392521
0.00392528
0.0039254
0.0039256
0.00392583
0.00392612
0.0039264
0.00392662
0.0039268
0.00392703
0.00392729
0.00392755
0.00392774
0.00392794
0.00392817
0.0039284
0.0039286
0.00392878
0.00392896
0.00392909
0.00392919
0.00392926
0.0039293
0.00392935
0.00392936
0.00379289
0.0037929
0.00379291
0.00379293
0.00379295
0.003793
0.00379303
0.00379305
0.00379307
0.00379307
0.00379305
0.00379299
0.00379292
0.00379282
0.0037927
0.00379259
0.00379248
0.00379222
0.00379184
0.0037914
0.00379091
0.00379037
0.00378997
0.00378934
0.00378859
0.00378781
0.00378703
0.00378625
0.0037855
0.00378476
0.00378429
0.00378386
0.00378352
0.00378329
0.00378317
0.00378316
0.00378325
0.00378341
0.00378365
0.00378393
0.00378426
0.00378455
0.00378473
0.00378502
0.00378535
0.00378569
0.00378598
0.00378622
0.00378647
0.00378673
0.00378699
0.00378722
0.00378742
0.00378761
0.00378776
0.00378787
0.00378795
0.00378801
0.00378805
0.00378807
0.00366138
0.00366139
0.00366141
0.00366143
0.00366146
0.00366151
0.00366156
0.00366158
0.00366161
0.00366162
0.00366161
0.00366156
0.00366149
0.0036614
0.00366127
0.00366115
0.00366102
0.00366074
0.00366035
0.00365986
0.0036593
0.0036587
0.00365817
0.00365747
0.00365662
0.00365572
0.0036548
0.00365391
0.00365304
0.00365219
0.00365163
0.00365113
0.00365074
0.00365049
0.00365036
0.00365037
0.00365048
0.00365069
0.00365097
0.00365131
0.00365168
0.00365201
0.00365225
0.00365262
0.00365301
0.00365339
0.0036537
0.00365399
0.00365431
0.00365462
0.00365491
0.00365516
0.00365539
0.0036556
0.00365576
0.00365589
0.00365597
0.00365604
0.00365609
0.00365611
0.00353832
0.00353834
0.00353836
0.00353839
0.00353842
0.00353848
0.00353854
0.00353857
0.00353861
0.00353863
0.00353863
0.0035386
0.00353854
0.00353845
0.00353833
0.0035382
0.00353804
0.00353776
0.00353735
0.00353683
0.0035362
0.00353551
0.00353477
0.00353407
0.00353314
0.0035321
0.00353105
0.00353001
0.003529
0.00352804
0.00352738
0.0035268
0.00352636
0.00352608
0.00352595
0.00352598
0.00352612
0.00352638
0.00352669
0.00352704
0.00352744
0.00352781
0.00352821
0.00352867
0.00352913
0.00352954
0.0035299
0.00353025
0.00353062
0.00353097
0.00353128
0.00353156
0.00353181
0.00353203
0.00353221
0.00353235
0.00353245
0.00353252
0.00353258
0.0035326
0.00342295
0.00342297
0.003423
0.00342303
0.00342307
0.00342313
0.0034232
0.00342325
0.0034233
0.00342333
0.00342335
0.00342334
0.0034233
0.00342322
0.0034231
0.00342293
0.00342276
0.00342251
0.0034221
0.00342155
0.00342088
0.0034201
0.00341925
0.00341847
0.00341741
0.00341624
0.00341502
0.00341382
0.00341265
0.00341154
0.00341076
0.00341009
0.00340959
0.00340928
0.00340916
0.00340921
0.0034094
0.00340968
0.00341004
0.00341046
0.00341086
0.00341134
0.00341187
0.00341241
0.00341293
0.00341336
0.00341378
0.00341421
0.00341463
0.00341501
0.00341536
0.00341566
0.00341593
0.00341616
0.00341636
0.00341651
0.00341662
0.0034167
0.00341676
0.00341679
0.00331458
0.0033146
0.00331463
0.00331467
0.00331472
0.0033148
0.00331487
0.00331494
0.00331501
0.00331506
0.00331509
0.0033151
0.00331508
0.00331503
0.00331492
0.00331476
0.00331458
0.00331435
0.00331393
0.00331336
0.00331266
0.00331183
0.00331089
0.00330998
0.00330881
0.00330748
0.00330608
0.00330468
0.00330333
0.00330207
0.00330113
0.00330035
0.00329978
0.00329944
0.00329932
0.0032994
0.00329961
0.00329993
0.00330037
0.00330088
0.00330137
0.00330194
0.00330257
0.00330318
0.00330374
0.00330423
0.00330471
0.0033052
0.00330566
0.00330607
0.00330644
0.00330677
0.00330706
0.00330732
0.00330752
0.00330769
0.00330781
0.00330789
0.00330796
0.00330798
0.00321261
0.00321263
0.00321267
0.00321271
0.00321277
0.00321286
0.00321295
0.00321304
0.00321312
0.00321319
0.00321325
0.00321328
0.0032133
0.00321327
0.00321318
0.00321305
0.00321288
0.00321265
0.00321226
0.00321169
0.00321097
0.00321009
0.0032091
0.003208
0.00320686
0.00320534
0.00320374
0.00320213
0.00320056
0.00319908
0.00319797
0.00319707
0.00319642
0.00319604
0.00319592
0.00319603
0.00319617
0.00319656
0.00319702
0.00319762
0.00319828
0.00319898
0.00319968
0.00320033
0.00320093
0.00320151
0.00320207
0.00320261
0.00320311
0.00320355
0.00320395
0.0032043
0.00320461
0.00320488
0.0032051
0.00320527
0.0032054
0.0032055
0.00320556
0.00320559
0.0031165
0.00311652
0.00311656
0.00311662
0.00311669
0.00311678
0.00311689
0.00311699
0.0031171
0.0031172
0.00311729
0.00311735
0.00311739
0.0031174
0.00311736
0.00311724
0.00311708
0.00311685
0.00311652
0.003116
0.0031153
0.00311442
0.00311342
0.00311303
0.0031574
0.00315585
0.00315412
0.00315237
0.00315066
0.00314903
0.0031478
0.00314681
0.0031461
0.00314569
0.00314557
0.00314568
0.00309878
0.00309904
0.00309962
0.00310033
0.00310111
0.0031019
0.00310267
0.00310337
0.00310403
0.00310469
0.00310533
0.00310592
0.00310645
0.00310692
0.00310735
0.00310772
0.00310804
0.00310833
0.00310856
0.00310874
0.00310888
0.00310898
0.00310905
0.00310908
0.00302576
0.00302579
0.00302583
0.0030259
0.00302598
0.00302609
0.00302621
0.00302634
0.00302647
0.0030266
0.00302671
0.00302681
0.0030269
0.00302695
0.00302695
0.00302689
0.00302675
0.00302655
0.00302626
0.00302585
0.00302521
0.0030244
0.0030242
0.00306658
0.00306312
0.00306164
0.00305969
0.00305765
0.00305562
0.00305367
0.00305214
0.00305089
0.00304999
0.00304948
0.00304933
0.0030494
0.00305129
0.0030071
0.00300772
0.00300852
0.00300939
0.00301027
0.0030111
0.00301186
0.0030126
0.00301333
0.00301401
0.00301464
0.00301521
0.00301571
0.00301616
0.00301655
0.00301689
0.00301718
0.00301742
0.00301761
0.00301776
0.00301786
0.00301793
0.00301797
0.00293997
0.00294
0.00294005
0.00294013
0.00294022
0.00294034
0.00294048
0.00294063
0.00294079
0.00294095
0.0029411
0.00294124
0.00294137
0.00294148
0.00294154
0.00294154
0.00294148
0.00294134
0.00294114
0.00294082
0.00294031
0.00293967
0.00294021
0.00297811
0.00297487
0.00299472
0.0029926
0.00299031
0.00298801
0.00298577
0.00298399
0.0029825
0.00298142
0.00298078
0.00298059
0.00295881
0.0029604
0.00292021
0.00292087
0.00292174
0.00292269
0.00292362
0.0029245
0.00292535
0.00292618
0.00292698
0.0029277
0.00292836
0.00292896
0.00292948
0.00292995
0.00293036
0.00293071
0.00293101
0.00293127
0.00293146
0.00293161
0.00293172
0.00293179
0.00293183
0.00285875
0.00285878
0.00285884
0.00285892
0.00285902
0.00285916
0.00285932
0.00285949
0.00285968
0.00285987
0.00286006
0.00286025
0.00286043
0.0028606
0.00286073
0.00286082
0.00286085
0.00286082
0.00286071
0.00286054
0.00286025
0.00285995
0.00286129
0.00289514
0.0028923
0.00291024
0.00290787
0.00290527
0.00290264
0.00290008
0.00289786
0.00289595
0.00289448
0.0028935
0.00289296
0.00287331
0.00287446
0.00283813
0.00283875
0.00283962
0.00284063
0.0028416
0.00284256
0.00284351
0.00284441
0.00284525
0.00284601
0.0028467
0.00284732
0.00284787
0.00284835
0.00284877
0.00284913
0.00284944
0.0028497
0.00284991
0.00285005
0.00285016
0.00285024
0.00285028
0.00278173
0.00278176
0.00278183
0.00278192
0.00278204
0.00278219
0.00278237
0.00278256
0.00278278
0.002783
0.00278324
0.00278347
0.00278372
0.00278395
0.00278417
0.00278436
0.00278452
0.00278463
0.00278469
0.00278471
0.00278471
0.00278496
0.00278723
0.00281758
0.00281549
0.00283183
0.00282928
0.00282677
0.00282418
0.00282143
0.0028187
0.00281599
0.00281362
0.00281177
0.00281056
0.00279241
0.00279334
0.00276051
0.00276101
0.00276184
0.00276289
0.00276393
0.00276498
0.00276599
0.00276694
0.00276781
0.00276861
0.00276932
0.00276996
0.00277052
0.00277101
0.00277144
0.00277181
0.00277212
0.00277238
0.00277259
0.00277275
0.00277285
0.00277293
0.00277298
0.00270861
0.00270865
0.00270872
0.00270882
0.00270895
0.00270912
0.00270931
0.00270953
0.00270977
0.00271004
0.00271031
0.00271061
0.00271091
0.00271122
0.00271154
0.00271185
0.00271215
0.00271245
0.00271274
0.00271307
0.00271349
0.00271451
0.00271786
0.00274531
0.00274494
0.00276009
0.00275762
0.00275701
0.00275621
0.0027543
0.00275068
0.00274569
0.0027407
0.00273654
0.00273364
0.00271587
0.00271697
0.00268704
0.00268738
0.00268813
0.00268923
0.00269034
0.00269145
0.00269249
0.00269347
0.00269437
0.00269518
0.00269591
0.00269655
0.00269712
0.00269762
0.00269805
0.00269843
0.00269874
0.00269901
0.00269921
0.00269937
0.00269948
0.00269956
0.0026996
0.0026391
0.00263914
0.00263922
0.00263933
0.00263947
0.00263965
0.00263987
0.00264011
0.00264038
0.00264068
0.002641
0.00264135
0.00264172
0.00264211
0.00264253
0.00264297
0.00264344
0.00264396
0.00264457
0.00264533
0.00264635
0.00264847
0.00265302
0.00267834
0.00268143
0.00269539
0.00269597
0.002703
0.0027119
0.00271615
0.00270968
0.00269545
0.00268111
0.00267046
0.00266343
0.00264332
0.0026453
0.00261748
0.00261767
0.00261836
0.00261944
0.00262056
0.00262167
0.00262273
0.00262373
0.00262463
0.00262545
0.00262618
0.00262683
0.0026274
0.0026279
0.00262833
0.0026287
0.00262902
0.00262928
0.00262949
0.00262964
0.00262975
0.00262983
0.00262987
0.00257295
0.00257299
0.00257307
0.00257319
0.00257334
0.00257354
0.00257377
0.00257404
0.00257434
0.00257467
0.00257504
0.00257543
0.00257587
0.00257635
0.00257687
0.00257745
0.00257812
0.0025789
0.00257986
0.00258118
0.00258302
0.00258664
0.00259253
0.00261672
0.00262578
0.00263922
0.00265196
0.00268926
0.00275034
0.00279585
0.00277164
0.00270428
0.00265006
0.00261911
0.0026027
0.00257559
0.00257834
0.00255164
0.00255168
0.00255228
0.00255325
0.00255434
0.00255542
0.00255647
0.00255745
0.00255835
0.00255916
0.00255989
0.00256054
0.0025611
0.00256159
0.00256202
0.00256238
0.0025627
0.00256295
0.00256315
0.0025633
0.00256341
0.00256349
0.00256353
0.00250991
0.00250996
0.00251004
0.00251017
0.00251033
0.00251054
0.00251079
0.00251108
0.0025114
0.00251177
0.00251217
0.00251262
0.00251312
0.00251368
0.00251431
0.00251504
0.0025159
0.00251696
0.00251835
0.00252033
0.0025232
0.00252871
0.00253616
0.00256066
0.00257821
0.00259415
0.00264724
0.00279691
0.00296512
0.00307423
0.00301897
0.00285864
0.00269067
0.00259294
0.00255504
0.00251524
0.00251599
0.00248953
0.00248914
0.00248965
0.00249043
0.00249144
0.00249247
0.00249347
0.00249442
0.0024953
0.00249609
0.0024968
0.00249743
0.00249798
0.00249847
0.00249888
0.00249923
0.00249953
0.00249978
0.00249998
0.00250012
0.00250023
0.0025003
0.00250035
0.00244978
0.00244983
0.00244992
0.00245005
0.00245023
0.00245045
0.00245071
0.00245102
0.00245136
0.00245176
0.0024522
0.00245269
0.00245325
0.00245388
0.00245462
0.00245548
0.00245654
0.0024579
0.00245974
0.00246245
0.00246652
0.0024742
0.0024832
0.0025101
0.00253852
0.00256438
0.00272752
0.00302329
0.00343468
0.00425257
0.00396413
0.00323095
0.0028317
0.0026039
0.00252121
0.00246632
0.00245814
0.00243103
0.00242981
0.00243024
0.00243077
0.00243166
0.00243258
0.00243352
0.00243442
0.00243525
0.00243601
0.0024367
0.0024373
0.00243783
0.00243829
0.00243869
0.00243903
0.00243932
0.00243956
0.00243975
0.00243989
0.00243999
0.00244006
0.00244011
0.00239236
0.00239242
0.00239251
0.00239264
0.00239283
0.00239306
0.00239334
0.00239365
0.00239402
0.00239444
0.00239491
0.00239544
0.00239605
0.00239675
0.00239758
0.00239857
0.00239982
0.00240146
0.00240375
0.00240722
0.00241261
0.00242253
0.0024329
0.00246424
0.00250602
0.00254919
0.00289277
0.00337354
0.0050089
0.00476184
0.00304003
0.00264384
0.00249547
0.00242977
0.00240447
0.00237621
0.00237352
0.00237382
0.00237405
0.00237477
0.00237556
0.0023764
0.00237723
0.002378
0.00237871
0.00237936
0.00237993
0.00238043
0.00238087
0.00238125
0.00238157
0.00238185
0.00238208
0.00238226
0.00238239
0.00238249
0.00238256
0.00238261
0.00233747
0.00233753
0.00233762
0.00233777
0.00233795
0.00233819
0.00233848
0.00233882
0.0023392
0.00233964
0.00234013
0.00234069
0.00234134
0.0023421
0.00234299
0.00234409
0.00234551
0.00234741
0.00235013
0.00235434
0.00236113
0.00237313
0.00238506
0.002422
0.0024804
0.0025341
0.00308212
0.00373106
0.00588459
0.0267013
0.11127
0.00330071
0.00266897
0.00246629
0.00240193
0.00235536
0.00232534
0.00232028
0.00232028
0.00232018
0.00232068
0.00232129
0.002322
0.00232272
0.00232342
0.00232407
0.00232465
0.00232518
0.00232565
0.00232606
0.00232641
0.00232671
0.00232697
0.00232718
0.00232735
0.00232747
0.00232757
0.00232763
0.00232768
0.00228495
0.00228501
0.00228511
0.00228526
0.00228545
0.0022857
0.00228599
0.00228634
0.00228673
0.00228718
0.0022877
0.00228828
0.00228896
0.00228975
0.0022907
0.00229188
0.00229342
0.00229553
0.00229865
0.00230352
0.00231173
0.00232557
0.00234024
0.00238321
0.00246176
0.00251558
0.003284
0.0040663
0.0052497
0.0258962
0.0794252
0.11872
0.00364937
0.00266604
0.00243297
0.00237919
0.00231175
0.00227876
0.00227011
0.00226944
0.00226895
0.00226917
0.00226957
0.00227012
0.00227072
0.00227131
0.00227188
0.00227241
0.00227288
0.0022733
0.00227367
0.00227399
0.00227427
0.0022745
0.00227469
0.00227485
0.00227496
0.00227505
0.00227511
0.00227516
0.00223465
0.00223472
0.00223482
0.00223496
0.00223516
0.00223541
0.00223572
0.00223607
0.00223647
0.00223693
0.00223745
0.00223805
0.00223874
0.00223955
0.00224053
0.00224176
0.00224338
0.00224565
0.00224909
0.00225449
0.0022641
0.0022797
0.00229938
0.00234856
0.0024513
0.00251409
0.00341926
0.00428006
0.00501867
0.00569568
0.110374
0.108285
0.0046598
0.0027545
0.00241966
0.00236561
0.00227567
0.00223714
0.00222314
0.00222114
0.00222019
0.00222008
0.00222023
0.00222059
0.00222104
0.00222152
0.00222199
0.00222244
0.00222286
0.00222323
0.00222355
0.00222384
0.00222408
0.00222429
0.00222447
0.0022246
0.00222471
0.00222478
0.00222483
0.00222488
0.00218644
0.0021865
0.0021866
0.00218675
0.00218695
0.00218721
0.00218751
0.00218787
0.00218828
0.00218874
0.00218927
0.00218987
0.00219056
0.00219138
0.00219236
0.00219359
0.00219524
0.00219758
0.00220126
0.00220713
0.00221805
0.00223573
0.00226382
0.00232069
0.00244853
0.00255801
0.00347916
0.00439469
0.00510622
0.00120692
0.0224358
0.0682366
0.0309909
0.00348912
0.00246136
0.00236987
0.00225006
0.00220115
0.00217953
0.00217527
0.00217373
0.00217324
0.0021731
0.00217324
0.00217353
0.00217388
0.00217426
0.00217462
0.00217497
0.00217528
0.00217556
0.00217581
0.00217602
0.0021762
0.00217635
0.00217647
0.00217656
0.00217662
0.00217667
0.00217672
0.00214018
0.00214024
0.00214035
0.0021405
0.0021407
0.00214096
0.00214127
0.00214162
0.00214203
0.0021425
0.00214302
0.00214362
0.0021443
0.00214509
0.00214604
0.00214722
0.00214886
0.00215128
0.00215517
0.00216148
0.00217346
0.00219391
0.00223496
0.00230405
0.00245473
0.0026626
0.00346377
0.00448859
0.00524848
0.00230345
0.00200319
0.0146743
0.0520326
0.00757364
0.00259046
0.00238782
0.00223635
0.00217087
0.00213937
0.00213167
0.00212938
0.00212845
0.00212801
0.00212792
0.00212804
0.00212826
0.00212852
0.0021288
0.00212907
0.00212933
0.00212956
0.00212976
0.00212994
0.0021301
0.00213022
0.00213033
0.0021304
0.00213045
0.00213049
0.00213054
0.00209576
0.00209582
0.00209593
0.00209608
0.00209629
0.00209654
0.00209685
0.00209721
0.00209762
0.00209808
0.0020986
0.00209918
0.00209983
0.00210056
0.00210146
0.00210264
0.00210429
0.00210675
0.00211076
0.0021175
0.00213026
0.00215445
0.00221397
0.00230492
0.0024805
0.00284491
0.00348463
0.0047268
0.00581644
0.00451539
0.00130562
0.0115923
0.0326567
0.0120091
0.00281521
0.00239872
0.00223127
0.00214521
0.00210239
0.00209015
0.00208691
0.00208553
0.00208479
0.00208449
0.00208444
0.00208451
0.00208467
0.00208486
0.00208505
0.00208525
0.00208543
0.00208559
0.00208573
0.00208586
0.00208596
0.00208604
0.0020861
0.00208615
0.00208618
0.00208622
0.00205307
0.00205314
0.00205324
0.0020534
0.0020536
0.00205386
0.00205417
0.00205453
0.00205493
0.00205539
0.00205589
0.00205644
0.00205705
0.00205776
0.00205865
0.00205981
0.00206143
0.00206389
0.00206798
0.00207516
0.00208858
0.00211729
0.00220181
0.00233146
0.00255899
0.00317144
0.00395484
0.00558056
0.00725285
0.00776527
0.00459997
0.0167369
0.0146661
0.0129827
0.00304337
0.0023872
0.00222596
0.002122
0.00206801
0.00205054
0.00204625
0.0020444
0.00204335
0.00204279
0.00204257
0.00204252
0.00204257
0.00204267
0.00204279
0.00204292
0.00204305
0.00204317
0.00204328
0.00204337
0.00204345
0.00204352
0.00204356
0.0020436
0.00204362
0.00204366
0.00201202
0.00201209
0.00201219
0.00201235
0.00201255
0.00201281
0.00201312
0.00201348
0.00201388
0.00201431
0.00201477
0.00201529
0.0020159
0.00201662
0.00201749
0.00201861
0.00202019
0.00202266
0.00202683
0.00203448
0.00204883
0.00208275
0.00219681
0.0023814
0.00277057
0.00421464
0.0120276
0.021115
0.0272167
0.0186058
0.00627756
0.00779159
0.00982464
0.0122136
0.00316808
0.00235576
0.00221564
0.00209903
0.00203521
0.0020126
0.00200717
0.00200487
0.00200355
0.00200272
0.00200231
0.00200213
0.00200209
0.00200212
0.00200217
0.00200224
0.00200232
0.0020024
0.00200247
0.00200254
0.0020026
0.00200264
0.00200267
0.0020027
0.00200271
0.00200275
0.00197251
0.00197258
0.00197269
0.00197284
0.00197305
0.00197331
0.00197361
0.00197396
0.00197435
0.00197476
0.00197521
0.00197574
0.00197634
0.00197704
0.00197789
0.00197898
0.00198053
0.00198302
0.00198732
0.00199544
0.00201141
0.00205192
0.00219842
0.00245791
0.00447481
0.0172654
0.0371749
0.0306832
0.0242423
0.00969092
0.00480386
0.0105365
0.00789439
0.0108968
0.00325605
0.00232119
0.00219925
0.00207474
0.00200314
0.001976
0.00196956
0.00196678
0.00196521
0.00196419
0.00196361
0.00196329
0.00196315
0.00196311
0.0019631
0.00196312
0.00196315
0.00196319
0.00196323
0.00196327
0.0019633
0.00196333
0.00196334
0.00196336
0.00196337
0.0019634
0.00193446
0.00193453
0.00193464
0.00193479
0.001935
0.00193526
0.00193556
0.0019359
0.00193627
0.00193668
0.00193715
0.00193767
0.00193827
0.00193895
0.00193977
0.00194085
0.00194241
0.00194493
0.00194941
0.00195802
0.0019762
0.00202498
0.00222122
0.00273443
0.0137916
0.0412358
0.042656
0.0217406
0.011424
0.00506827
0.00754036
0.00793217
0.00627759
0.00959605
0.00332906
0.0022998
0.0021781
0.0020483
0.00197121
0.00194048
0.00193323
0.00193007
0.00192824
0.00192704
0.00192632
0.00192588
0.00192565
0.00192553
0.00192548
0.00192545
0.00192544
0.00192544
0.00192545
0.00192546
0.00192547
0.00192548
0.00192548
0.00192549
0.00192549
0.00192553
0.00189778
0.00189786
0.00189797
0.00189812
0.00189833
0.00189858
0.00189887
0.0018992
0.00189958
0.0019
0.00190048
0.001901
0.00190159
0.00190226
0.00190308
0.00190416
0.00190574
0.00190834
0.00191305
0.00192218
0.00194282
0.00200369
0.00231656
0.00378142
0.0248971
0.0509591
0.0395014
0.0106158
0.00560421
0.00612557
0.00702067
0.00420512
0.00536434
0.00856986
0.00336888
0.00229867
0.00215504
0.00201944
0.00193907
0.00190591
0.00189804
0.00189462
0.00189259
0.00189119
0.00189033
0.00188979
0.0018895
0.00188932
0.00188921
0.00188915
0.0018891
0.00188907
0.00188905
0.00188904
0.00188903
0.00188902
0.00188901
0.00188901
0.001889
0.00188904
0.00186241
0.00186249
0.0018626