/*--------------------------------*- C++ -*----------------------------------*\
  =========                 |
  \\      /  F ield         | OpenFOAM: The Open Source CFD Toolbox
   \\    /   O peration     | Website:  https://openfoam.org
    \\  /    A nd           | Version:  12
     \\/     M anipulation  |
\*---------------------------------------------------------------------------*/
FoamFile
{
    format      ascii;
    class       volScalarField;
    location    "400";
    object      nut;
}
// * * * * * * * * * * * * * * * * * * * * * * * * * * * * * * * * * * * * * //

dimensions      [0 2 -1 0 0 0 0];

internalField   nonuniform List<scalar> 
16227
(
0.000978543
0.000978543
0.000978543
0.000978543
0.000978543
0.000978543
0.000978543
0.000978543
0.000978543
0.000978543
0.000978543
0.000978543
0.000978544
0.000978544
0.000978544
0.000978544
0.000978544
0.000978544
0.000978544
0.000978544
0.000978544
0.000978544
0.000978544
0.000978544
0.000978544
0.000978544
0.000978544
0.000978544
0.000978544
0.000978544
0.000978544
0.000978544
0.000978544
0.000978544
0.000978544
0.000978544
0.000978544
0.000978544
0.000978544
0.000978544
0.000978544
0.000978544
0.000978544
0.000978544
0.000978544
0.000978544
0.000978544
0.000978544
0.000978544
0.000978544
0.000978544
0.000978543
0.000978543
0.000978543
0.000978543
0.000978543
0.000978543
0.000978543
0.000978543
0.000978543
0.000972834
0.000972834
0.000972834
0.000972834
0.000972834
0.000972834
0.000972834
0.000972834
0.000972834
0.000972835
0.000972835
0.000972835
0.000972836
0.000972837
0.000972837
0.000972837
0.000972837
0.000972837
0.000972837
0.000972837
0.000972837
0.000972837
0.000972837
0.000972837
0.000972837
0.000972837
0.000972837
0.000972837
0.000972837
0.000972836
0.000972837
0.000972837
0.000972837
0.000972837
0.000972837
0.000972837
0.000972837
0.000972837
0.000972837
0.000972837
0.000972836
0.000972836
0.000972836
0.000972836
0.000972836
0.000972836
0.000972836
0.000972836
0.000972836
0.000972836
0.000972836
0.000972836
0.000972835
0.000972835
0.000972834
0.000972834
0.000972834
0.000972834
0.000972834
0.000972834
0.000967494
0.000967494
0.000967494
0.000967494
0.000967495
0.000967495
0.000967495
0.000967495
0.000967495
0.000967495
0.000967495
0.000967496
0.000967498
0.000967498
0.000967499
0.000967499
0.000967499
0.000967499
0.000967499
0.000967499
0.000967499
0.000967499
0.000967499
0.000967499
0.000967499
0.000967499
0.000967499
0.000967499
0.000967499
0.000967498
0.000967498
0.000967498
0.000967498
0.000967498
0.000967498
0.000967498
0.000967498
0.000967498
0.000967498
0.000967498
0.000967498
0.000967498
0.000967498
0.000967497
0.000967497
0.000967498
0.000967497
0.000967497
0.000967497
0.000967497
0.000967497
0.000967495
0.000967495
0.000967494
0.000967494
0.000967494
0.000967495
0.000967494
0.000967494
0.000967494
0.000962482
0.000962482
0.000962482
0.000962482
0.000962482
0.000962483
0.000962483
0.000962483
0.000962483
0.000962483
0.000962483
0.000962484
0.000962486
0.000962487
0.000962487
0.000962487
0.000962488
0.000962488
0.000962487
0.000962486
0.000962487
0.000962488
0.000962487
0.000962487
0.000962487
0.000962487
0.000962487
0.000962487
0.000962486
0.000962486
0.000962486
0.000962486
0.000962486
0.000962486
0.000962486
0.000962486
0.000962486
0.000962485
0.000962485
0.000962485
0.000962485
0.000962485
0.000962485
0.000962485
0.000962485
0.000962485
0.000962485
0.000962485
0.000962485
0.000962485
0.000962484
0.000962482
0.000962481
0.000962481
0.000962481
0.000962482
0.000962481
0.000962481
0.000962481
0.000962481
0.000957761
0.000957761
0.000957761
0.000957761
0.000957761
0.000957762
0.000957762
0.000957762
0.000957762
0.000957762
0.000957763
0.000957763
0.000957766
0.000957767
0.000957768
0.000957768
0.000957768
0.000957768
0.000957766
0.000957765
0.000957767
0.000957767
0.000957767
0.000957767
0.000957767
0.000957767
0.000957766
0.000957766
0.000957765
0.000957764
0.000957765
0.000957765
0.000957765
0.000957764
0.000957764
0.000957764
0.000957764
0.000957764
0.000957764
0.000957764
0.000957764
0.000957764
0.000957764
0.000957764
0.000957764
0.000957764
0.000957764
0.000957764
0.000957764
0.000957763
0.000957761
0.00095776
0.000957759
0.000957759
0.00095776
0.00095776
0.00095776
0.000957759
0.000957759
0.000957759
0.000953302
0.000953302
0.000953302
0.000953302
0.000953303
0.000953303
0.000953304
0.000953303
0.000953303
0.000953303
0.000953303
0.000953304
0.000953305
0.000953309
0.00095331
0.00095331
0.00095331
0.000953309
0.000953306
0.000953306
0.000953308
0.000953309
0.000953308
0.000953308
0.000953308
0.000953307
0.000953307
0.000953306
0.000953305
0.000953304
0.000953304
0.000953304
0.000953304
0.000953303
0.000953303
0.000953303
0.000953303
0.000953303
0.000953303
0.000953303
0.000953303
0.000953303
0.000953303
0.000953303
0.000953303
0.000953303
0.000953303
0.000953303
0.000953304
0.000953302
0.0009533
0.000953298
0.000953298
0.000953299
0.0009533
0.0009533
0.000953299
0.000953298
0.000953299
0.000953298
0.000949079
0.00094908
0.00094908
0.00094908
0.00094908
0.00094908
0.000949081
0.000949081
0.000949081
0.000949081
0.000949081
0.000949081
0.000949082
0.000949086
0.000949087
0.000949088
0.000949087
0.000949084
0.000949083
0.000949083
0.000949085
0.000949086
0.000949085
0.000949084
0.000949084
0.000949083
0.000949082
0.000949081
0.00094908
0.000949078
0.000949079
0.000949078
0.000949078
0.000949077
0.000949077
0.000949077
0.000949076
0.000949076
0.000949076
0.000949077
0.000949077
0.000949077
0.000949077
0.000949077
0.000949078
0.000949078
0.000949078
0.000949078
0.000949078
0.000949075
0.000949073
0.000949073
0.000949073
0.000949074
0.000949074
0.000949074
0.000949074
0.000949073
0.000949074
0.000949073
0.000945071
0.000945071
0.000945071
0.000945071
0.000945071
0.000945072
0.000945072
0.000945073
0.000945072
0.000945072
0.000945072
0.000945072
0.000945073
0.000945074
0.000945078
0.000945079
0.000945079
0.000945075
0.000945073
0.000945073
0.000945076
0.000945076
0.000945075
0.000945074
0.000945073
0.000945072
0.000945071
0.000945069
0.000945068
0.000945066
0.000945066
0.000945065
0.000945064
0.000945064
0.000945063
0.000945063
0.000945063
0.000945063
0.000945063
0.000945063
0.000945063
0.000945063
0.000945064
0.000945064
0.000945065
0.000945065
0.000945066
0.000945066
0.000945065
0.000945062
0.000945061
0.00094506
0.000945061
0.000945062
0.000945062
0.000945063
0.000945062
0.000945062
0.000945062
0.000945062
0.000941257
0.000941257
0.000941257
0.000941257
0.000941257
0.000941258
0.000941258
0.000941259
0.000941259
0.000941258
0.000941258
0.000941258
0.000941258
0.00094126
0.000941264
0.000941266
0.000941264
0.00094126
0.000941258
0.000941258
0.000941261
0.00094126
0.000941259
0.000941257
0.000941256
0.000941254
0.000941253
0.000941251
0.000941249
0.000941246
0.000941246
0.000941245
0.000941244
0.000941243
0.000941243
0.000941242
0.000941242
0.000941242
0.000941242
0.000941242
0.000941243
0.000941244
0.000941244
0.000941245
0.000941245
0.000941246
0.000941247
0.000941246
0.000941243
0.000941242
0.000941241
0.000941242
0.000941243
0.000941244
0.000941244
0.000941245
0.000941244
0.000941244
0.000941244
0.000941244
0.000937621
0.000937621
0.000937621
0.000937621
0.000937621
0.000937621
0.000937622
0.000937622
0.000937623
0.000937623
0.000937622
0.000937622
0.000937622
0.000937624
0.000937628
0.000937629
0.000937625
0.000937622
0.000937621
0.000937621
0.000937623
0.000937622
0.00093762
0.000937618
0.000937616
0.000937614
0.000937612
0.000937609
0.000937607
0.000937604
0.000937603
0.000937602
0.0009376
0.000937599
0.000937599
0.000937598
0.000937598
0.000937598
0.000937598
0.000937598
0.000937599
0.0009376
0.000937601
0.000937602
0.000937603
0.000937604
0.000937604
0.000937604
0.0009376
0.0009376
0.0009376
0.000937601
0.000937602
0.000937603
0.000937603
0.000937604
0.000937603
0.000937603
0.000937604
0.000937604
0.000934148
0.000934148
0.000934148
0.000934148
0.000934148
0.000934149
0.000934149
0.00093415
0.00093415
0.00093415
0.00093415
0.000934149
0.000934148
0.000934149
0.000934151
0.000934154
0.000934151
0.000934148
0.000934147
0.000934146
0.000934147
0.000934147
0.000934144
0.000934142
0.000934139
0.000934136
0.000934133
0.00093413
0.000934127
0.000934123
0.000934121
0.00093412
0.000934118
0.000934117
0.000934116
0.000934115
0.000934115
0.000934115
0.000934115
0.000934116
0.000934117
0.000934118
0.000934119
0.00093412
0.000934121
0.000934123
0.000934123
0.000934121
0.00093412
0.00093412
0.00093412
0.000934121
0.000934123
0.000934124
0.000934125
0.000934125
0.000934125
0.000934125
0.000934125
0.000934125
0.000930825
0.000930825
0.000930825
0.000930825
0.000930825
0.000930826
0.000930827
0.000930827
0.000930827
0.000930827
0.000930827
0.000930826
0.000930825
0.000930826
0.000930827
0.00093083
0.000930827
0.000930825
0.000930823
0.000930821
0.00093082
0.00093082
0.000930818
0.000930814
0.000930811
0.000930807
0.000930803
0.000930799
0.000930795
0.00093079
0.000930789
0.000930786
0.000930784
0.000930783
0.000930781
0.00093078
0.00093078
0.00093078
0.000930781
0.000930782
0.000930783
0.000930784
0.000930786
0.000930787
0.000930789
0.00093079
0.000930789
0.000930789
0.000930789
0.000930789
0.00093079
0.000930791
0.000930793
0.000930794
0.000930795
0.000930796
0.000930796
0.000930796
0.000930796
0.000930796
0.000927641
0.000927641
0.000927641
0.000927641
0.000927641
0.000927642
0.000927642
0.000927643
0.000927643
0.000927643
0.000927643
0.000927642
0.000927642
0.000927641
0.000927641
0.000927641
0.000927641
0.00092764
0.000927637
0.000927635
0.000927632
0.000927633
0.00092763
0.000927626
0.000927621
0.000927616
0.000927611
0.000927606
0.000927601
0.000927596
0.000927593
0.00092759
0.000927587
0.000927585
0.000927584
0.000927583
0.000927582
0.000927582
0.000927583
0.000927584
0.000927586
0.000927588
0.00092759
0.000927592
0.000927594
0.000927594
0.000927594
0.000927595
0.000927595
0.000927595
0.000927597
0.000927599
0.000927601
0.000927602
0.000927603
0.000927604
0.000927605
0.000927605
0.000927605
0.000927605
0.000924585
0.000924585
0.000924585
0.000924585
0.000924585
0.000924586
0.000924587
0.000924587
0.000924587
0.000924588
0.000924587
0.000924587
0.000924586
0.000924585
0.000924585
0.000924585
0.000924585
0.000924583
0.00092458
0.000924577
0.000924574
0.000924574
0.00092457
0.000924565
0.000924559
0.000924553
0.000924547
0.000924541
0.000924535
0.000924528
0.000924524
0.000924521
0.000924517
0.000924515
0.000924513
0.000924511
0.000924511
0.000924511
0.000924512
0.000924514
0.000924515
0.000924518
0.00092452
0.000924523
0.000924524
0.000924524
0.000924526
0.000924527
0.000924528
0.000924529
0.000924531
0.000924533
0.000924536
0.000924537
0.000924539
0.00092454
0.000924541
0.000924541
0.000924541
0.000924542
0.000921648
0.000921648
0.000921648
0.000921648
0.000921649
0.000921649
0.00092165
0.000921651
0.000921651
0.000921651
0.000921651
0.000921651
0.00092165
0.000921649
0.000921649
0.000921648
0.000921648
0.000921646
0.000921643
0.000921639
0.000921635
0.000921634
0.00092163
0.000921623
0.000921616
0.000921609
0.000921601
0.000921594
0.000921586
0.000921578
0.000921574
0.000921569
0.000921565
0.000921561
0.000921559
0.000921558
0.000921557
0.000921558
0.000921559
0.00092156
0.000921563
0.000921565
0.000921568
0.000921571
0.000921571
0.000921573
0.000921575
0.000921578
0.000921579
0.000921581
0.000921584
0.000921586
0.000921589
0.000921591
0.000921593
0.000921594
0.000921595
0.000921595
0.000921596
0.000921596
0.000918822
0.000918822
0.000918822
0.000918822
0.000918823
0.000918824
0.000918825
0.000918825
0.000918826
0.000918826
0.000918826
0.000918826
0.000918825
0.000918825
0.000918824
0.000918824
0.000918823
0.000918821
0.000918817
0.000918813
0.000918808
0.000918805
0.0009188
0.000918793
0.000918784
0.000918776
0.000918767
0.000918758
0.000918748
0.000918739
0.000918733
0.000918727
0.000918722
0.000918718
0.000918715
0.000918713
0.000918712
0.000918713
0.000918714
0.000918716
0.000918719
0.000918722
0.000918726
0.000918728
0.000918729
0.000918732
0.000918735
0.000918737
0.00091874
0.000918743
0.000918746
0.000918749
0.000918752
0.000918754
0.000918757
0.000918758
0.000918759
0.00091876
0.00091876
0.000918761
0.000916099
0.000916099
0.000916099
0.0009161
0.0009161
0.000916101
0.000916102
0.000916103
0.000916104
0.000916105
0.000916105
0.000916105
0.000916104
0.000916104
0.000916103
0.000916103
0.000916103
0.0009161
0.000916096
0.000916091
0.000916085
0.000916079
0.000916075
0.000916067
0.000916057
0.000916047
0.000916036
0.000916025
0.000916014
0.000916003
0.000915996
0.000915988
0.000915982
0.000915977
0.000915973
0.000915971
0.00091597
0.00091597
0.000915972
0.000915974
0.000915978
0.000915981
0.000915984
0.000915986
0.000915989
0.000915993
0.000915997
0.000916
0.000916003
0.000916007
0.000916011
0.000916014
0.000916018
0.00091602
0.000916023
0.000916025
0.000916026
0.000916027
0.000916027
0.000916028
0.000913473
0.000913473
0.000913473
0.000913474
0.000913475
0.000913476
0.000913477
0.000913478
0.000913479
0.00091348
0.000913481
0.000913481
0.000913481
0.000913481
0.00091348
0.00091348
0.00091348
0.000913477
0.000913473
0.000913467
0.000913461
0.000913454
0.000913449
0.00091344
0.000913429
0.000913417
0.000913405
0.000913392
0.000913378
0.000913365
0.000913356
0.000913347
0.000913339
0.000913332
0.000913328
0.000913325
0.000913323
0.000913324
0.000913325
0.000913328
0.000913331
0.000913335
0.000913336
0.00091334
0.000913345
0.00091335
0.000913355
0.000913358
0.000913363
0.000913367
0.000913371
0.000913375
0.000913379
0.000913382
0.000913385
0.000913387
0.000913388
0.00091339
0.00091339
0.000913391
0.000910937
0.000910937
0.000910938
0.000910938
0.00091094
0.000910941
0.000910943
0.000910944
0.000910945
0.000910947
0.000910948
0.000910948
0.000910949
0.000910949
0.000910949
0.000910949
0.000910949
0.000910947
0.000910943
0.000910937
0.00091093
0.000910923
0.000910917
0.000910908
0.000910895
0.000910881
0.000910867
0.000910852
0.000910836
0.000910821
0.000910809
0.000910798
0.000910787
0.000910779
0.000910773
0.000910769
0.000910767
0.000910767
0.000910768
0.000910771
0.000910775
0.000910778
0.00091078
0.000910785
0.000910791
0.000910797
0.000910801
0.000910806
0.000910812
0.000910817
0.000910822
0.000910826
0.000910831
0.000910834
0.000910837
0.00091084
0.000910841
0.000910842
0.000910843
0.000910844
0.000908486
0.000908487
0.000908487
0.000908488
0.000908489
0.000908491
0.000908493
0.000908495
0.000908497
0.000908499
0.0009085
0.000908501
0.000908502
0.000908503
0.000908504
0.000908504
0.000908505
0.000908504
0.0009085
0.000908495
0.000908488
0.000908481
0.000908472
0.000908465
0.000908452
0.000908437
0.000908421
0.000908404
0.000908386
0.000908367
0.000908352
0.000908338
0.000908325
0.000908314
0.000908306
0.0009083
0.000908297
0.000908296
0.000908296
0.000908298
0.000908301
0.000908304
0.000908309
0.000908315
0.000908322
0.000908328
0.000908333
0.000908339
0.000908345
0.000908351
0.000908357
0.000908362
0.000908366
0.00090837
0.000908374
0.000908376
0.000908378
0.000908379
0.000908381
0.000908381
0.000906115
0.000906116
0.000906117
0.000906118
0.000906119
0.000906121
0.000906124
0.000906126
0.000906128
0.000906131
0.000906133
0.000906135
0.000906137
0.000906139
0.00090614
0.000906141
0.000906143
0.000906143
0.000906141
0.000906137
0.000906132
0.000906125
0.000906117
0.000906111
0.000906099
0.000906084
0.000906066
0.000906047
0.000906025
0.000906003
0.000905984
0.000905965
0.000905948
0.000905934
0.000905923
0.000905914
0.000905909
0.000905906
0.000905905
0.000905906
0.000905907
0.000905911
0.000905917
0.000905924
0.000905931
0.000905938
0.000905944
0.000905951
0.000905958
0.000905965
0.000905971
0.000905977
0.000905982
0.000905986
0.00090599
0.000905993
0.000905994
0.000905996
0.000905997
0.000905998
0.000903819
0.00090382
0.000903821
0.000903822
0.000903824
0.000903826
0.000903829
0.000903832
0.000903836
0.000903839
0.000903842
0.000903845
0.000903848
0.000903851
0.000903854
0.000903856
0.000903859
0.000903862
0.000903863
0.000903861
0.000903858
0.000903854
0.00090385
0.000903847
0.000903838
0.000903824
0.000903806
0.000903785
0.00090376
0.000903733
0.000903708
0.000903683
0.000903659
0.000903639
0.000903623
0.000903611
0.000903601
0.000903595
0.000903591
0.000903591
0.000903592
0.000903596
0.000903602
0.00090361
0.000903617
0.000903624
0.000903631
0.000903639
0.000903647
0.000903654
0.00090366
0.000903666
0.000903672
0.000903677
0.000903681
0.000903684
0.000903686
0.000903688
0.000903689
0.00090369
0.000901594
0.000901595
0.000901596
0.000901598
0.0009016
0.000901603
0.000901606
0.00090161
0.000901614
0.000901618
0.000901623
0.000901627
0.000901632
0.000901636
0.000901641
0.000901646
0.000901651
0.000901657
0.000901661
0.000901664
0.000901666
0.000901668
0.000901671
0.000901673
0.000901679
0.000901668
0.000901651
0.000901629
0.000901601
0.000901568
0.000901534
0.000901499
0.000901466
0.000901436
0.000901412
0.000901394
0.000901373
0.000901362
0.000901352
0.000901349
0.000901349
0.000901353
0.000901359
0.000901366
0.000901373
0.000901381
0.000901389
0.000901398
0.000901406
0.000901414
0.000901421
0.000901427
0.000901433
0.000901438
0.000901442
0.000901446
0.000901448
0.00090145
0.000901451
0.000901452
0.000899436
0.000899437
0.000899438
0.00089944
0.000899443
0.000899446
0.00089945
0.000899455
0.00089946
0.000899465
0.000899471
0.000899477
0.000899483
0.00089949
0.000899498
0.000899505
0.000899514
0.000899524
0.000899534
0.000899544
0.000899555
0.000899568
0.000899585
0.000899624
0.000900604
0.000900603
0.000900588
0.000900566
0.000900537
0.000900499
0.00090046
0.000900418
0.000900377
0.00090034
0.000900311
0.000900286
0.00089924
0.000899207
0.00089919
0.000899182
0.000899179
0.000899181
0.000899186
0.000899191
0.000899198
0.000899206
0.000899215
0.000899224
0.000899233
0.000899241
0.000899249
0.000899255
0.000899261
0.000899267
0.000899271
0.000899275
0.000899277
0.000899279
0.00089928
0.000899281
0.000897341
0.000897342
0.000897343
0.000897346
0.000897349
0.000897353
0.000897357
0.000897363
0.000897369
0.000897376
0.000897383
0.000897391
0.0008974
0.00089741
0.00089742
0.000897432
0.000897445
0.000897461
0.000897479
0.000897501
0.000897526
0.000897557
0.000897618
0.000898596
0.000898551
0.00089858
0.000898582
0.000898569
0.000898539
0.000898492
0.000898434
0.000898368
0.000898301
0.00089824
0.000898191
0.000898151
0.00089817
0.000897139
0.000897107
0.000897088
0.000897079
0.000897078
0.000897079
0.000897083
0.000897089
0.000897098
0.000897107
0.000897116
0.000897124
0.000897133
0.00089714
0.000897147
0.000897153
0.000897159
0.000897163
0.000897167
0.00089717
0.000897172
0.000897173
0.000897174
0.000895305
0.000895306
0.000895308
0.000895311
0.000895314
0.000895319
0.000895324
0.000895331
0.000895338
0.000895346
0.000895356
0.000895366
0.000895377
0.000895391
0.000895406
0.000895423
0.000895443
0.000895467
0.000895497
0.000895535
0.000895581
0.000895642
0.00089576
0.000896645
0.000896641
0.000897165
0.000897179
0.000897177
0.000897153
0.000897102
0.00089703
0.000896938
0.000896839
0.000896748
0.000896675
0.000896146
0.000896111
0.000895155
0.000895104
0.000895066
0.000895048
0.00089504
0.000895037
0.000895038
0.000895044
0.000895051
0.00089506
0.000895068
0.000895077
0.000895085
0.000895093
0.0008951
0.000895106
0.000895111
0.000895116
0.00089512
0.000895122
0.000895124
0.000895126
0.000895127
0.000893326
0.000893327
0.000893329
0.000893332
0.000893336
0.000893342
0.000893348
0.000893356
0.000893364
0.000893374
0.000893385
0.000893398
0.000893413
0.00089343
0.000893451
0.000893474
0.000893503
0.000893539
0.000893585
0.000893645
0.000893723
0.000893835
0.000894029
0.000894839
0.000894901
0.000895442
0.000895474
0.000895513
0.000895527
0.000895493
0.000895402
0.000895259
0.000895085
0.000894909
0.000894758
0.000894261
0.000894149
0.000893261
0.000893183
0.000893116
0.000893085
0.000893067
0.000893058
0.000893056
0.000893059
0.000893065
0.000893072
0.00089308
0.000893088
0.000893096
0.000893103
0.00089311
0.000893116
0.000893122
0.000893126
0.00089313
0.000893133
0.000893135
0.000893136
0.000893137
0.0008914
0.000891402
0.000891404
0.000891407
0.000891412
0.000891418
0.000891425
0.000891434
0.000891444
0.000891456
0.000891469
0.000891485
0.000891503
0.000891525
0.000891552
0.000891584
0.000891624
0.000891675
0.000891743
0.000891834
0.000891959
0.000892151
0.00089245
0.00089321
0.000893415
0.000894033
0.000894113
0.000894296
0.000894446
0.000894487
0.000894367
0.000894093
0.000893727
0.00089335
0.000893019
0.000892487
0.000892304
0.000891458
0.000891347
0.00089124
0.00089119
0.000891158
0.000891141
0.000891134
0.000891133
0.000891136
0.000891142
0.000891148
0.000891155
0.000891162
0.000891169
0.000891176
0.000891182
0.000891187
0.000891191
0.000891195
0.000891197
0.000891199
0.000891201
0.000891202
0.000889525
0.000889527
0.00088953
0.000889533
0.000889539
0.000889545
0.000889554
0.000889563
0.000889575
0.000889588
0.000889604
0.000889623
0.000889645
0.000889672
0.000889706
0.000889748
0.000889802
0.000889873
0.00088997
0.000890106
0.000890296
0.000890612
0.000891052
0.000891802
0.000892322
0.000893084
0.000893339
0.00089402
0.00089469
0.000895048
0.000894845
0.000894138
0.000893217
0.000892321
0.00089158
0.000890794
0.000890612
0.000889748
0.000889597
0.000889441
0.000889365
0.000889315
0.000889287
0.000889271
0.000889265
0.000889264
0.000889266
0.000889271
0.000889276
0.000889282
0.000889288
0.000889294
0.0008893
0.000889304
0.000889308
0.000889312
0.000889314
0.000889316
0.000889317
0.000889318
0.000887699
0.0008877
0.000887703
0.000887707
0.000887713
0.00088772
0.00088773
0.000887741
0.000887754
0.000887769
0.000887787
0.000887809
0.000887836
0.000887869
0.00088791
0.000887963
0.000888034
0.000888129
0.000888263
0.00088846
0.000888743
0.00088924
0.000889861
0.000890678
0.000891832
0.000892785
0.000893751
0.00089613
0.000898917
0.000900701
0.000900079
0.000897563
0.000894718
0.000892398
0.000890746
0.000889159
0.000889123
0.000888128
0.000887936
0.000887725
0.00088761
0.000887537
0.000887492
0.000887465
0.000887451
0.000887445
0.000887443
0.000887445
0.000887449
0.000887453
0.000887458
0.000887463
0.000887468
0.000887472
0.000887475
0.000887478
0.000887481
0.000887482
0.000887483
0.000887485
0.000885918
0.00088592
0.000885923
0.000885927
0.000885933
0.000885941
0.000885951
0.000885964
0.000885978
0.000885995
0.000886016
0.000886041
0.000886072
0.000886111
0.000886161
0.000886226
0.000886316
0.00088644
0.00088662
0.000886895
0.000887305
0.000888052
0.000888892
0.000889917
0.000892178
0.000893427
0.000896923
0.000905448
0.000918664
0.000918047
0.000924977
0.0009122
0.000901338
0.000894793
0.000891101
0.000887754
0.000887895
0.000886604
0.000886358
0.000886092
0.000885925
0.000885822
0.000885756
0.000885716
0.000885692
0.000885678
0.000885672
0.00088567
0.000885671
0.000885673
0.000885676
0.00088568
0.000885684
0.000885687
0.00088569
0.000885693
0.000885694
0.000885696
0.000885697
0.000885698
0.00088418
0.000884182
0.000884186
0.000884191
0.000884197
0.000884206
0.000884217
0.00088423
0.000884246
0.000884264
0.000884287
0.000884315
0.00088435
0.000884396
0.000884454
0.000884533
0.000884643
0.000884801
0.000885036
0.000885407
0.000885981
0.00088705
0.000888139
0.000889606
0.000893502
0.000895585
0.000907116
0.000809962
0.000359328
0.000252477
0.000292336
0.000505798
0.000921742
0.000901691
0.000893399
0.000887147
0.000886949
0.000885192
0.000884856
0.00088454
0.000884308
0.00088417
0.000884078
0.00088402
0.000883984
0.000883962
0.000883949
0.000883943
0.00088394
0.00088394
0.000883941
0.000883943
0.000883945
0.000883948
0.00088395
0.000883952
0.000883953
0.000883955
0.000883955
0.000883957
0.000882485
0.000882487
0.00088249
0.000882495
0.000882503
0.000882512
0.000882523
0.000882537
0.000882554
0.000882575
0.000882599
0.00088263
0.000882669
0.00088272
0.000882788
0.00088288
0.000883012
0.000883206
0.000883503
0.000883987
0.000884759
0.000886212
0.000887548
0.000889796
0.00089581
0.00090019
0.000932995
0.000371287
0.000156763
8.89388e-05
0.000116404
0.000234184
0.000607844
0.000915598
0.000897963
0.000888171
0.000886265
0.000883928
0.000883422
0.000883065
0.000882758
0.000882579
0.000882456
0.000882377
0.000882327
0.000882294
0.000882274
0.000882261
0.000882255
0.000882251
0.00088225
0.00088225
0.000882251
0.000882252
0.000882254
0.000882255
0.000882256
0.000882256
0.000882257
0.000882258
0.000880828
0.000880831
0.000880834
0.00088084
0.000880847
0.000880857
0.000880869
0.000880884
0.000880902
0.000880923
0.00088095
0.000880983
0.000881026
0.000881082
0.000881157
0.000881263
0.000881417
0.000881649
0.000882013
0.000882622
0.000883623
0.000885495
0.000887046
0.000890458
0.000899128
0.000907238
0.000837959
0.000301729
0.000199446
0.00017426
0.000545047
0.00093436
0.000903656
0.000891176
0.000885839
0.000882868
0.000882062
0.000881661
0.000881272
0.000881046
0.000880887
0.000880784
0.000880716
0.000880672
0.000880643
0.000880624
0.000880612
0.000880605
0.000880601
0.000880599
0.000880598
0.000880598
0.000880598
0.000880599
0.000880599
0.000880599
0.0008806
0.000880601
0.00087921
0.000879212
0.000879216
0.000879222
0.00087923
0.00087924
0.000879252
0.000879268
0.000879286
0.000879309
0.000879337
0.000879372
0.000879417
0.000879478
0.00087956
0.000879678
0.000879854
0.000880124
0.000880558
0.000881299
0.000882565
0.000884853
0.00088669
0.000891554
0.0009036
0.000914081
0.000888406
0.000402616
0.000173688
3.8123e-05
0.00236455
0.000727835
0.000947276
0.00090823
0.000895525
0.000885787
0.000882101
0.000880801
0.000880326
0.000879852
0.000879571
0.000879372
0.000879241
0.000879153
0.000879095
0.000879055
0.000879029
0.000879012
0.000879
0.000878993
0.000878988
0.000878986
0.000878984
0.000878983
0.000878982
0.000878982
0.000878982
0.000878982
0.000878983
0.000877628
0.00087763
0.000877634
0.00087764
0.000877648
0.000877658
0.000877671
0.000877687
0.000877706
0.00087773
0.000877759
0.000877795
0.000877842
0.000877906
0.000877994
0.000878123
0.000878318
0.000878625
0.000879132
0.000880004
0.000881572
0.000884255
0.000886669
0.000893139
0.000909464
0.000920193
0.00105804
0.000845208
0.000139424
3.33076e-05
0.000332731
0.00510064
0.000868476
0.000951088
0.000911525
0.000900603
0.000886384
0.00088176
0.000879687
0.000879062
0.000878495
0.000878151
0.000877906
0.000877744
0.000877635
0.00087756
0.00087751
0.000877475
0.000877452
0.000877435
0.000877424
0.000877417
0.000877411
0.000877408
0.000877406
0.000877404
0.000877403
0.000877402
0.000877402
0.000877403
0.00087608
0.000876083
0.000876087
0.000876093
0.000876101
0.000876112
0.000876125
0.000876141
0.000876161
0.000876184
0.000876214
0.000876251
0.000876299
0.000876365
0.000876458
0.000876595
0.000876807
0.000877148
0.000877729
0.000878729
0.000880626
0.000883728
0.000887284
0.000895483
0.000917195
0.000929971
0.00110067
0.0010335
0.000297995
1.22768e-05
0.000389021
0.00758941
0.000867826
0.000966878
0.000918654
0.000907347
0.000888155
0.000882051
0.000878793
0.000877874
0.000877198
0.000876783
0.000876488
0.000876291
0.000876158
0.000876066
0.000876003
0.000875959
0.000875929
0.000875907
0.000875892
0.000875881
0.000875874
0.000875868
0.000875865
0.000875862
0.00087586
0.000875858
0.000875857
0.000875859
0.000874565
0.000874568
0.000874572
0.000874578
0.000874587
0.000874598
0.000874611
0.000874628
0.000874647
0.000874671
0.0008747
0.000874738
0.000874786
0.000874853
0.000874949
0.000875092
0.000875319
0.000875691
0.000876345
0.000877475
0.000879707
0.000883346
0.000888902
0.000899243
0.00092686
0.000949763
0.00113002
0.00114077
0.000575469
5.55015e-06
6.34172e-05
0.000679001
0.0024155
0.00106846
0.000936834
0.000917709
0.000891839
0.000883188
0.000878203
0.000876769
0.000875958
0.000875463
0.000875114
0.000874878
0.000874719
0.000874609
0.000874533
0.00087448
0.000874442
0.000874415
0.000874395
0.000874381
0.000874371
0.000874364
0.000874358
0.000874354
0.000874351
0.000874349
0.000874348
0.000874349
0.000873082
0.000873086
0.00087309
0.000873096
0.000873105
0.000873116
0.000873129
0.000873146
0.000873165
0.000873189
0.000873218
0.000873255
0.000873304
0.00087337
0.000873467
0.000873614
0.000873853
0.000874257
0.000874982
0.000876253
0.000878803
0.000883199
0.000891933
0.000905531
0.000938908
0.000983286
0.00114539
0.00123549
0.000899137
2.85605e-05
7.69551e-06
5.72555e-05
0.000570214
0.00138047
0.000971477
0.000930897
0.000897869
0.000885244
0.000877974
0.000875749
0.000874768
0.000874184
0.000873778
0.000873502
0.000873316
0.000873187
0.000873097
0.000873034
0.000872989
0.000872956
0.000872932
0.000872914
0.000872901
0.000872892
0.000872885
0.000872879
0.000872875
0.000872872
0.000872871
0.000872872
0.00087163
0.000871633
0.000871638
0.000871644
0.000871653
0.000871664
0.000871678
0.000871694
0.000871714
0.000871737
0.000871766
0.000871802
0.000871849
0.000871914
0.000872011
0.000872163
0.000872414
0.000872849
0.000873644
0.000875076
0.000877919
0.000883364
0.000896737
0.000915926
0.000955839
0.00103438
0.00116798
0.00134289
0.00124258
0.000186216
1.16044e-05
5.2238e-05
0.00021024
0.00113852
0.0010201
0.000942263
0.000905615
0.000888069
0.000878104
0.00087481
0.000873617
0.000872938
0.000872475
0.000872159
0.000871945
0.000871797
0.000871694
0.00087162
0.000871567
0.000871529
0.0008715
0.000871479
0.000871463
0.000871451
0.000871443
0.000871436
0.000871431
0.000871427
0.000871425
0.000871426
0.000870207
0.000870211
0.000870215
0.000870221
0.00087023
0.000870241
0.000870255
0.000870272
0.000870291
0.000870314
0.000870342
0.000870377
0.000870423
0.000870487
0.000870585
0.000870741
0.000871004
0.00087147
0.000872333
0.00087395
0.000877089
0.000883838
0.000903619
0.000932482
0.000985422
0.00111622
0.00128571
0.0015655
0.00169759
0.000867419
9.47265e-05
9.3472e-05
9.11644e-05
0.000956469
0.00106256
0.000948499
0.00091308
0.000891161
0.000878498
0.00087394
0.000872496
0.00087172
0.000871201
0.000870843
0.000870603
0.000870436
0.000870319
0.000870236
0.000870175
0.000870131
0.000870098
0.000870074
0.000870055
0.000870041
0.000870031
0.000870023
0.000870017
0.000870012
0.00087001
0.000870011
0.000868812
0.000868816
0.00086882
0.000868827
0.000868836
0.000868847
0.000868861
0.000868877
0.000868897