/*--------------------------------*- C++ -*----------------------------------*\
  =========                 |
  \\      /  F ield         | OpenFOAM: The Open Source CFD Toolbox
   \\    /   O peration     | Website:  https://openfoam.org
    \\  /    A nd           | Version:  12
     \\/     M anipulation  |
\*---------------------------------------------------------------------------*/
FoamFile
{
    format      ascii;
    class       volScalarField;
    location    "400";
    object      omega;
}
// * * * * * * * * * * * * * * * * * * * * * * * * * * * * * * * * * * * * * //

dimensions      [0 0 -1 0 0 0 0];

internalField   nonuniform List<scalar> 
16227
(
9.34702
9.34704
9.34704
9.34707
9.34706
9.3471
9.34709
9.34708
9.34707
9.34709
9.34713
9.34715
9.3472
9.3472
9.3472
9.3472
9.3472
9.3472
9.3472
9.3472
9.3472
9.3472
9.3472
9.3472
9.3472
9.3472
9.3472
9.34722
9.34722
9.3472
9.34721
9.3472
9.3472
9.3472
9.34721
9.3472
9.3472
9.3472
9.3472
9.3472
9.3472
9.3472
9.3472
9.3472
9.3472
9.3472
9.3472
9.34719
9.34717
9.34717
9.34717
9.34716
9.3471
9.3471
9.34706
9.34705
9.34707
9.34705
9.34703
9.34702
8.71806
8.71808
8.71808
8.71811
8.71811
8.71815
8.71814
8.71811
8.71812
8.71813
8.71818
8.7182
8.71835
8.7184
8.71841
8.71841
8.71841
8.71841
8.71841
8.71841
8.71842
8.71844
8.71844
8.71843
8.71843
8.71843
8.71843
8.71843
8.71841
8.71836
8.71841
8.71843
8.71843
8.71842
8.71842
8.71841
8.7184
8.7184
8.7184
8.7184
8.7184
8.7184
8.7184
8.71838
8.71838
8.71837
8.71837
8.71837
8.71837
8.71836
8.71833
8.71828
8.71817
8.71816
8.71812
8.7181
8.71814
8.71806
8.71807
8.71805
8.16622
8.16624
8.16625
8.16626
8.16626
8.16634
8.1663
8.16629
8.1663
8.16631
8.16635
8.16637
8.16661
8.16667
8.16668
8.16669
8.16669
8.16669
8.16671
8.16666
8.16669
8.1667
8.16669
8.16669
8.16668
8.16668
8.16667
8.16667
8.16666
8.16658
8.16664
8.16665
8.16665
8.16664
8.16665
8.16664
8.16664
8.16663
8.16662
8.16662
8.16662
8.16662
8.16661
8.1666
8.1666
8.16661
8.1666
8.1666
8.16659
8.16657
8.16653
8.16635
8.16627
8.16626
8.16624
8.16624
8.16627
8.16618
8.16619
8.16617
7.67838
7.6784
7.6784
7.67842
7.67842
7.67849
7.67849
7.67846
7.67847
7.67847
7.67851
7.67857
7.67883
7.6789
7.67892
7.67893
7.67894
7.67895
7.67889
7.67876
7.67887
7.6789
7.67888
7.67888
7.67888
7.67887
7.67885
7.67883
7.6788
7.67871
7.67877
7.67878
7.67877
7.67876
7.67876
7.67876
7.67876
7.67875
7.67875
7.67874
7.67874
7.67874
7.67873
7.67874
7.67874
7.67873
7.67874
7.67873
7.67874
7.67871
7.6786
7.67841
7.67832
7.67834
7.67834
7.67836
7.67834
7.67827
7.67827
7.67825
7.2442
7.24422
7.24422
7.24424
7.24425
7.24431
7.24434
7.24428
7.2443
7.2443
7.24434
7.2444
7.24465
7.24477
7.24479
7.24479
7.2448
7.24477
7.24456
7.24448
7.24466
7.24472
7.2447
7.24467
7.24465
7.24462
7.24459
7.24457
7.24453
7.24441
7.24448
7.24448
7.24447
7.24445
7.24444
7.24443
7.24443
7.24443
7.24443
7.24443
7.24443
7.24444
7.24444
7.24444
7.24444
7.24446
7.24446
7.24446
7.24447
7.24439
7.24416
7.24406
7.24399
7.24402
7.24404
7.24409
7.24403
7.24396
7.24397
7.24395
6.85544
6.85546
6.85546
6.85548
6.85548
6.85553
6.85558
6.85553
6.85552
6.85552
6.85554
6.85558
6.8557
6.85598
6.85604
6.85605
6.85605
6.85594
6.8557
6.85566
6.85585
6.85589
6.85586
6.85581
6.85577
6.85574
6.85569
6.85564
6.85558
6.85545
6.8555
6.85549
6.85547
6.85545
6.85544
6.85543
6.85543
6.85542
6.85542
6.85543
6.85543
6.85544
6.85545
6.85547
6.85548
6.85549
6.85551
6.85552
6.85552
6.85539
6.85517
6.85507
6.85504
6.85509
6.85514
6.85514
6.85509
6.85503
6.85504
6.85502
6.50543
6.50545
6.50545
6.50547
6.50547
6.50552
6.50556
6.50555
6.50552
6.50552
6.50552
6.50552
6.50563
6.5059
6.50603
6.50604
6.50601
6.50572
6.50558
6.50557
6.50576
6.50578
6.50572
6.50566
6.5056
6.50553
6.50546
6.5054
6.50531
6.50515
6.50519
6.50517
6.50513
6.50511
6.50509
6.50507
6.50506
6.50507
6.50508
6.5051
6.50511
6.50513
6.50515
6.50517
6.5052
6.50522
6.50524
6.50526
6.50521
6.50496
6.50485
6.50478
6.5048
6.50488
6.5049
6.5049
6.50486
6.50481
6.50483
6.50481
6.18876
6.18877
6.18877
6.18879
6.18879
6.18883
6.18888
6.18888
6.18885
6.18883
6.18882
6.18879
6.18885
6.18898
6.18927
6.18935
6.18927
6.18893
6.18881
6.18877
6.18896
6.18896
6.18887
6.18878
6.18868
6.18859
6.1885
6.1884
6.18828
6.1881
6.18812
6.18809
6.18804
6.188
6.18797
6.18796
6.18795
6.18795
6.18797
6.18799
6.18802
6.18804
6.18808
6.18812
6.18816
6.18819
6.18823
6.18825
6.18815
6.18792
6.18783
6.18781
6.18787
6.18793
6.18794
6.18795
6.18792
6.18788
6.1879
6.18788
5.90095
5.90095
5.90096
5.90097
5.90098
5.90101
5.90105
5.90105
5.90105
5.90101
5.90099
5.90094
5.90097
5.90107
5.9014
5.90149
5.90133
5.901
5.90088
5.90082
5.90099
5.90096
5.90084
5.90071
5.90059
5.90046
5.90032
5.90019
5.90005
5.89982
5.89982
5.89977
5.89971
5.89966
5.89962
5.8996
5.89959
5.89961
5.89963
5.89965
5.8997
5.89975
5.8998
5.89985
5.8999
5.89997
5.90001
5.89998
5.89975
5.89965
5.89961
5.89968
5.89972
5.89978
5.89981
5.89982
5.89981
5.89977
5.89978
5.89978
5.63827
5.63828
5.63828
5.6383
5.63829
5.63833
5.63837
5.63837
5.63837
5.63836
5.63831
5.63825
5.63827
5.63837
5.63864
5.63872
5.6384
5.63819
5.63807
5.63801
5.63814
5.63807
5.63792
5.63775
5.63758
5.63741
5.63724
5.63707
5.63688
5.63663
5.6366
5.63651
5.63643
5.63637
5.63632
5.6363
5.6363
5.63631
5.63635
5.63639
5.63644
5.63651
5.63659
5.63666
5.63674
5.63682
5.63687
5.63682
5.63659
5.63653
5.63656
5.63661
5.63667
5.63674
5.63678
5.63681
5.63679
5.63678
5.63678
5.63679
5.39764
5.39765
5.39765
5.39766
5.39767
5.3977
5.39773
5.39772
5.39772
5.39771
5.39769
5.3976
5.39756
5.39762
5.39772
5.39792
5.39762
5.39743
5.3973
5.39721
5.39725
5.39719
5.39701
5.3968
5.39658
5.39636
5.39613
5.39591
5.39569
5.39539
5.39532
5.39522
5.39511
5.39503
5.39498
5.39495
5.39495
5.39498
5.39502
5.39509
5.39516
5.39525
5.39535
5.39544
5.39554
5.39563
5.39564
5.39555
5.39544
5.39542
5.39548
5.39555
5.39562
5.39571
5.39576
5.39579
5.39579
5.39578
5.3958
5.3958
5.17642
5.17643
5.17643
5.17644
5.17645
5.17648
5.1765
5.17651
5.1765
5.17649
5.17646
5.17639
5.17632
5.17632
5.17638
5.17654
5.1763
5.17611
5.17593
5.17579
5.17566
5.17566
5.17548
5.17522
5.17494
5.17467
5.17439
5.17412
5.17383
5.1735
5.1734
5.17326
5.17313
5.17303
5.17296
5.17294
5.17294
5.17298
5.17303
5.17311
5.17322
5.17333
5.17345
5.17358
5.1737
5.17377
5.1737
5.17371
5.1737
5.17371
5.17379
5.17388
5.17397
5.17406
5.17412
5.17417
5.17418
5.17417
5.1742
5.1742
4.9724
4.9724
4.97241
4.97242
4.97243
4.97246
4.97248
4.97249
4.97248
4.97246
4.97244
4.97237
4.9723
4.97222
4.97219
4.97218
4.97212
4.97197
4.97177
4.97157
4.97136
4.97135
4.97113
4.97081
4.97047
4.97013
4.96979
4.96946
4.96912
4.96874
4.96859
4.96841
4.96825
4.96814
4.96806
4.96804
4.96804
4.96809
4.96817
4.96828
4.9684
4.96855
4.9687
4.96886
4.96899
4.96906
4.96903
4.9691
4.96911
4.96915
4.96925
4.96937
4.96948
4.96958
4.96966
4.96971
4.96973
4.96974
4.96976
4.96977
4.78367
4.78368
4.78368
4.78369
4.7837
4.78373
4.78375
4.78376
4.78375
4.78373
4.7837
4.78363
4.78356
4.78348
4.78338
4.78334
4.7833
4.78314
4.7829
4.78266
4.7824
4.78234
4.78205
4.78167
4.78127
4.78085
4.78044
4.78004
4.77964
4.7792
4.779
4.77878
4.77859
4.77845
4.77837
4.77834
4.77837
4.77843
4.77853
4.77867
4.77882
4.779
4.77919
4.77937
4.77947
4.77952
4.77962
4.77972
4.77978
4.77987
4.77999
4.78012
4.78025
4.78037
4.78046
4.78053
4.78056
4.78058
4.78061
4.78061
4.6086
4.60861
4.60862
4.60863
4.60864
4.60867
4.60869
4.6087
4.6087
4.60868
4.60865
4.60858
4.6085
4.6084
4.6083
4.60823
4.60818
4.60798
4.60771
4.60742
4.60711
4.60698
4.60663
4.60617
4.60569
4.6052
4.60471
4.60423
4.60375
4.60325
4.603
4.60273
4.60251
4.60235
4.60226
4.60223
4.60226
4.60236
4.60248
4.60265
4.60284
4.60306
4.60328
4.60345
4.6035
4.60366
4.60382
4.60397
4.60408
4.6042
4.60437
4.60452
4.60467
4.6048
4.6049
4.60499
4.60503
4.60506
4.60509
4.6051
4.44578
4.44579
4.4458
4.44582
4.44583
4.44586
4.44589
4.44589
4.4459
4.44588
4.44584
4.44578
4.4457
4.4456
4.44549
4.44541
4.44531
4.4451
4.44478
4.44444
4.44409
4.44383
4.44345
4.44292
4.44235
4.44177
4.44119
4.44062
4.44006
4.43948
4.43916
4.43885
4.43859
4.43841
4.43831
4.4383
4.43834
4.43846
4.43862
4.43882
4.43906
4.43932
4.43958
4.43975
4.43985
4.44006
4.44027
4.44042
4.44058
4.44077
4.44097
4.44115
4.44132
4.44147
4.44159
4.44168
4.44174
4.44177
4.44182
4.44182
4.29399
4.294
4.29402
4.29403
4.29405
4.29408
4.29411
4.29412
4.29413
4.29412
4.29409
4.29402
4.29395
4.29384
4.29372
4.29362
4.29351
4.29325
4.29291
4.2925
4.29207
4.29162
4.29126
4.29069
4.29003
4.28934
4.28866
4.28799
4.28733
4.28667
4.28628
4.28591
4.28562
4.28542
4.28531
4.2853
4.28538
4.28551
4.28572
4.28597
4.28626
4.28655
4.28678
4.28696
4.2872
4.28747
4.28773
4.28793
4.28813
4.28837
4.28859
4.2888
4.28898
4.28916
4.28929
4.2894
4.28947
4.28951
4.28956
4.28956
4.15216
4.15217
4.15219
4.15221
4.15223
4.15227
4.1523
4.15232
4.15233
4.15233
4.1523
4.15224
4.15216
4.15206
4.15193
4.15181
4.15168
4.15141
4.15102
4.15056
4.15005
4.14949
4.14908
4.14843
4.14766
4.14686
4.14606
4.14527
4.1445
4.14375
4.14328
4.14285
4.14251
4.14229
4.14218
4.14218
4.14228
4.14246
4.14272
4.14302
4.14335
4.14366
4.14385
4.14416
4.14449
4.14484
4.14514
4.14538
4.14563
4.1459
4.14617
4.1464
4.1466
4.14679
4.14695
4.14706
4.14714
4.1472
4.14724
4.14726
4.01935
4.01937
4.01938
4.01941
4.01944
4.01948
4.01953
4.01955
4.01957
4.01957
4.01956
4.0195
4.01943
4.01932
4.01919
4.01906
4.01891
4.01861
4.0182
4.01768
4.01711
4.01648
4.01592
4.01519
4.01431
4.01338
4.01245
4.01153
4.01064
4.00978
4.00922
4.00872
4.00833
4.00809
4.00798
4.00801
4.00814
4.00837
4.00867
4.00903
4.00942
4.00976
4.01002
4.0104
4.01082
4.0112
4.01152
4.01182
4.01215
4.01247
4.01276
4.01301
4.01325
4.01346
4.01362
4.01376
4.01384
4.01391
4.01396
4.01398
3.89475
3.89476
3.89478
3.89481
3.89484
3.8949
3.89495
3.89498
3.89501
3.89503
3.89502
3.89498
3.89492
3.89482
3.89468
3.89453
3.89436
3.89405
3.89361
3.89306
3.8924
3.89168
3.89089
3.89015
3.88918
3.88811
3.88702
3.88595
3.88492
3.88394
3.88327
3.8827
3.88227
3.882
3.8819
3.88195
3.88212
3.88241
3.88275
3.88313
3.88355
3.88395
3.88437
3.88485
3.88533
3.88576
3.88613
3.88649
3.88688
3.88723
3.88755
3.88784
3.88809
3.88832
3.8885
3.88864
3.88875
3.88881
3.88888
3.8889
3.77761
3.77763
3.77765
3.77769
3.77773
3.77779
3.77785
3.7779
3.77794
3.77797
3.77798
3.77795
3.7779
3.77781
3.77767
3.77748
3.77729
3.777
3.77656
3.77597
3.77526
3.77443
3.77352
3.77268
3.77157
3.77033
3.76906
3.76782
3.76661
3.76549
3.7647
3.76404
3.76356
3.76328
3.76319
3.76328
3.76351
3.76383
3.76424
3.7647
3.76513
3.76564
3.7662
3.76678
3.76731
3.76777
3.7682
3.76865
3.76908
3.76947
3.76983
3.77014
3.77042
3.77066
3.77086
3.77102
3.77112
3.77121
3.77127
3.7713
3.66731
3.66733
3.66735
3.6674
3.66744
3.66751
3.66759
3.66765
3.66771
3.66775
3.66778
3.66778
3.66774
3.66767
3.66754
3.66735
3.66714
3.66687
3.66641
3.66579
3.66502
3.66412
3.6631
3.6621
3.66085
3.65942
3.65795
3.65649
3.6551
3.65381
3.65287
3.65211
3.65158
3.65129
3.65122
3.65135
3.65162
3.652
3.65251
3.65307
3.6536
3.65423
3.65489
3.65554
3.65613
3.65664
3.65715
3.65766
3.65813
3.65856
3.65894
3.65928
3.65958
3.65984
3.66005
3.66023
3.66035
3.66044
3.6605
3.66053
3.56325
3.56328
3.56331
3.56336
3.56341
3.5635
3.56358
3.56366
3.56374
3.56381
3.56386
3.56387
3.56387
3.56381
3.56371
3.56354
3.56333
3.56305
3.5626
3.56196
3.56115
3.56017
3.55906
3.55783
3.55654
3.5549
3.55319
3.55149
3.54986
3.54835
3.54726
3.5464
3.5458
3.54549
3.54546
3.54565
3.54589
3.54637
3.54692
3.5476
3.54832
3.54908
3.54984
3.55054
3.55117
3.55178
3.55237
3.55294
3.55346
3.55392
3.55434
3.5547
3.55502
3.5553
3.55552
3.55571
3.55584
3.55593
3.556
3.55603
3.46495
3.46497
3.46501
3.46506
3.46513
3.46522
3.46533
3.46543
3.46552
3.46562
3.46569
3.46574
3.46576
3.46574
3.46566
3.46551
3.46529
3.465
3.46459
3.46398
3.46315
3.46213
3.46095
3.46037
3.50586
3.50416
3.50229
3.50043
3.49864
3.49699
3.49578
3.49484
3.4942
3.49389
3.49387
3.49409
3.446
3.44642
3.44712
3.44795
3.44882
3.4497
3.45054
3.45129
3.452
3.45271
3.45338
3.454
3.45455
3.45505
3.45549
3.45588
3.45622
3.45651
3.45675
3.45695
3.45709
3.45719
3.45726
3.4573
3.37192
3.37195
3.37199
3.37206
3.37213
3.37224
3.37236
3.37248
3.3726
3.37272
3.37282
3.3729
3.37296
3.37298
3.37295
3.37283
3.37263
3.37235
3.37196
3.37141
3.37061
3.36959
3.36914
3.41263
3.40896
3.4072
3.40503
3.4028
3.40066
3.39867
3.39718
3.39604
3.39529
3.39495
3.39497
3.3952
3.39723
3.35188
3.35268
3.35365
3.35465
3.35564
3.35656
3.35739
3.3582
3.35898
3.35971
3.36037
3.36097
3.3615
3.36197
3.36238
3.36273
3.36304
3.36329
3.36349
3.36364
3.36375
3.36383
3.36386
3.28377
3.2838
3.28385
3.28392
3.28401
3.28413
3.28427
3.28441
3.28455
3.2847
3.28484
3.28496
3.28506
3.28513
3.28515
3.28509
3.28494
3.2847
3.28436
3.28388
3.28314
3.2822
3.28237
3.32139
3.31779
3.33799
3.33557
3.33302
3.33054
3.32824
3.32652
3.3252
3.32436
3.32399
3.32405
3.3017
3.30361
3.26225
3.26316
3.26427
3.2654
3.26647
3.26747
3.26841
3.26932
3.27018
3.27096
3.27166
3.2723
3.27286
3.27335
3.27378
3.27415
3.27447
3.27473
3.27494
3.27509
3.27521
3.27529
3.27532
3.20012
3.20015
3.2002
3.20028
3.20039
3.20052
3.20068
3.20084
3.20102
3.2012
3.20138
3.20154
3.20169
3.20181
3.20189
3.20191
3.20184
3.20167
3.20139
3.20098
3.20037
3.19964
3.20045
3.23538
3.23198
3.25006
3.2473
3.24425
3.24127
3.23853
3.23638
3.23476
3.23375
3.23329
3.23323
3.21305
3.21475
3.17727
3.17823
3.17945
3.18069
3.18185
3.18296
3.18402
3.18502
3.18594
3.18677
3.18751
3.18817
3.18876
3.18927
3.18972
3.1901
3.19043
3.1907
3.19092
3.19108
3.19119
3.19128
3.19131
3.12063
3.12066
3.12073
3.12082
3.12093
3.12109
3.12126
3.12145
3.12165
3.12186
3.12208
3.12229
3.1225
3.12269
3.12284
3.12294
3.12298
3.12292
3.12275
3.12245
3.12202
3.12162
3.12312
3.15444
3.15138
3.16748
3.16434
3.16089
3.15747
3.15424
3.15162
3.14955
3.14818
3.14745
3.14725
3.12879
3.13048
3.09662
3.09757
3.09888
3.10023
3.10151
3.10274
3.1039
3.10497
3.10594
3.10681
3.10759
3.10827
3.10888
3.10941
3.10987
3.11026
3.1106
3.11088
3.11109
3.11126
3.11137
3.11146
3.1115
3.04501
3.04504
3.04511
3.04521
3.04534
3.04551
3.0457
3.04591
3.04614
3.04639
3.04665
3.04692
3.04718
3.04744
3.04768
3.04788
3.04804
3.04813
3.04813
3.04803
3.04785
3.04792
3.05016
3.07838
3.07617
3.09051
3.08687
3.08383
3.08063
3.07727
3.07392
3.07077
3.06835
3.06676
3.06606
3.04882
3.05068
3.02
3.02089
3.02227
3.02376
3.02518
3.02652
3.02775
3.02887
3.02988
3.03079
3.03159
3.0323
3.03292
3.03346
3.03393
3.03433
3.03467
3.03495
3.03517
3.03534
3.03545
3.03554
3.03558
2.97297
2.97301
2.97308
2.97319
2.97334
2.97352
2.97373
2.97397
2.97423
2.97451
2.97481
2.97513
2.97546
2.97579
2.97612
2.97644
2.97674
2.977
2.97724
2.97744
2.97763
2.97835
2.98139
3.00708
3.00665
3.01908
3.01647
3.0163
3.01685
3.0156
3.01049
3.00308
2.9966
2.99245
2.99012
2.97283
2.97518
2.94718
2.94804
2.94951
2.95111
2.95262
2.95403
2.95531
2.95647
2.95751
2.95844
2.95926
2.95998
2.96061
2.96116
2.96163
2.96203
2.96237
2.96265
2.96287
2.96304
2.96316
2.96324
2.96329
2.90427
2.90432
2.9044
2.90451
2.90467
2.90487
2.90509
2.90535
2.90565
2.90596
2.90631
2.90667
2.90707
2.90748
2.9079
2.90834
2.9088
2.90927
2.90977
2.91036
2.91109
2.91271
2.91659
2.94041
2.94312
2.95404
2.95673
2.97009
2.99384
3.01082
2.99645
2.96457
2.94015
2.92706
2.92077
2.90124
2.90388
2.87799
2.87883
2.88038
2.88201
2.88358
2.88502
2.88633
2.88752
2.88858
2.88952
2.89034
2.89107
2.8917
2.89225
2.89272
2.89311
2.89346
2.89373
2.89395
2.89411
2.89423
2.89431
2.89436
2.83869
2.83874
2.83882
2.83894
2.83911
2.83932
2.83957
2.83985
2.84017
2.84052
2.8409
2.84132
2.84177
2.84226
2.84278
2.84335
2.84397
2.84467
2.84548
2.84652
2.84792
2.85069
2.85558
2.87842
2.88551
2.8966
2.9183
2.99056
3.18602
3.40736
3.2881
3.04079
2.91911
2.87564
2.85991
2.8352
2.83668
2.81242
2.81304
2.81463
2.81625
2.81783
2.81928
2.82061
2.8218
2.82286
2.8238
2.82462
2.82534
2.82597
2.82651
2.82697
2.82736
2.82769
2.82797
2.82818
2.82834
2.82846
2.82854
2.82859
2.776
2.77606
2.77614
2.77628
2.77645
2.77667
2.77694
2.77724
2.77758
2.77796
2.77838
2.77884
2.77935
2.77991
2.78053
2.78122
2.78201
2.78293
2.78407
2.78561
2.78779
2.79188
2.79782
2.82098
2.83377
2.84871
2.9234
3.26208
4.61578
9.34458
7.20273
3.83726
2.99134
2.84393
2.8077
2.77685
2.77359
2.75026
2.75045
2.75205
2.75361
2.75518
2.75661
2.75792
2.75909
2.76014
2.76106
2.76187
2.76258
2.76319
2.76372
2.76417
2.76456
2.76488
2.76514
2.76535
2.76551
2.76562
2.7657
2.76575
2.71603
2.71609
2.71618
2.71632
2.7165
2.71674
2.71702
2.71733
2.7177
2.7181
2.71856
2.71906
2.71962
2.72024
2.72094
2.72174
2.72268
2.72383
2.7253
2.72736
2.73036
2.73579
2.7427
2.76738
2.78717
2.80983
2.98528
4.00246
14.654
12.2258
3.26806
2.82957
2.76153
2.72648
2.71434
2.69147
2.69087
2.69244
2.69389
2.6954
2.69678
2.69805
2.6992
2.70021
2.70111
2.7019
2.70258
2.70318
2.70369
2.70413
2.7045
2.70481
2.70507
2.70527
2.70542
2.70553
2.70561
2.70566
2.6586
2.65866
2.65876
2.6589
2.65909
2.65934
2.65963
2.65996
2.66034
2.66077
2.66125
2.66178
2.66238
2.66306
2.66382
2.66472
2.66579
2.66714
2.66891
2.67145
2.6753
2.68195
2.68985
2.71661
2.74502
2.77229
3.06019
4.48987
33.8803
700.398
47.0575
3.74722
2.81752
2.71549
2.68214
2.65906
2.63614
2.63428
2.6357
2.63701
2.63842
2.63972
2.64092
2.642
2.64297
2.64382
2.64457
2.64522
2.64579
2.64628
2.64669
2.64704
2.64734
2.64758
2.64778
2.64792
2.64803
2.6481
2.64815
2.60356
2.60362
2.60372
2.60387
2.60406
2.60431
2.60461
2.60496
2.60535
2.60579
2.6063
2.60685
2.60748
2.60819
2.60901
2.60997
2.61115
2.61264
2.61468
2.61762
2.62229
2.62998
2.63936
2.66836
2.70683
2.73375
3.10385
4.44127
37.6527
777.485
238.707
23.2755
4.20204
2.80315
2.66912
2.64178
2.60807
2.58433
2.58059
2.58166
2.58277
2.58404
2.58521
2.58631
2.58731
2.58821
2.58901
2.58971
2.59032
2.59085
2.5913
2.59169
2.59202
2.5923
2.59252
2.5927
2.59284
2.59294
2.593
2.59306
2.55074
2.5508
2.55091
2.55106
2.55126
2.55152
2.55182
2.55218
2.55258
2.55304
2.55355
2.55412
2.55477
2.5555
2.55635
2.55735
2.55858
2.56017
2.56239
2.56563
2.57101
2.57964
2.59148
2.62268
2.67261
2.70341
3.10653
4.14133
16.8414
463.938
283.724
14.268
5.36951
2.84886
2.63392
2.60717
2.56225
2.53629
2.52977
2.53014
2.53101
2.53208
2.5331
2.53407
2.53497
2.53579
2.53651
2.53715
2.53771
2.5382
2.53862
2.53897
2.53927
2.53953
2.53974
2.5399
2.54003
2.54011
2.54018
2.54023
2.50003
2.50009
2.5002
2.50035
2.50055
2.50082
2.50113
2.50149
2.5019
2.50236
2.50288
2.50346
2.50411
2.50485
2.5057
2.5067
2.50793
2.50954
2.51186
2.51532
2.52136
2.53098
2.54676
2.58071
2.64174
2.69332
3.07886
3.85238
8.87315
217.457
353.78
100.496
12.83
3.26555
2.62732
2.58238
2.52294
2.49228
2.48181
2.481
2.48155
2.48239
2.48322
2.48405
2.48483
2.48554
2.48619
2.48676
2.48726
2.4877
2.48807
2.48839
2.48867
2.4889
2.48909
2.48923
2.48935
2.48942
2.48948
2.48953
2.45129
2.45135
2.45146
2.45162
2.45183
2.45209
2.45241
2.45277
2.45318
2.45365
2.45417
2.45474
2.45539
2.45611
2.45692
2.45786
2.45906
2.4607
2.4631
2.46672
2.4732
2.48405
2.50575
2.54442
2.61445
2.70786
3.02409
3.63306
5.83723
80.6517
260.306
256.295
91.251
5.48625
2.66651
2.56507
2.49073
2.45229
2.43672
2.43411
2.43422
2.43479
2.43542
2.43608
2.43674
2.43734
2.4379
2.43839
2.43883
2.43922
2.43955
2.43983
2.44007
2.44028
2.44044
2.44057
2.44067
2.44074
2.44079
2.44084
2.40441
2.40448
2.40459
2.40474
2.40496
2.40522
2.40554
2.4059
2.40632
2.40678
2.4073
2.40786
2.40848
2.40913
2.4099
2.41084
2.41203
2.41365
2.41605
2.41979
2.42649
2.43892
2.46892
2.51649
2.5951
2.75034
2.98346
3.51988
4.68096
24.2481
112.51
221.914
155.331
10.548
2.75974
2.5457
2.46381
2.41559
2.39423
2.38926
2.38882
2.38909
2.38951
2.39003
2.39056
2.39105
2.39151
2.39193
2.3923
2.39263
2.39292
2.39316
2.39337
2.39354
2.39369
2.3938
2.39388
2.39394
2.39399
2.39403
2.35929
2.35936
2.35947
2.35963
2.35984
2.36011
2.36043
2.36079
2.3612
2.36166
2.36216
2.3627
2.36327
2.36391
2.36467
2.36558
2.36672
2.36829
2.37063
2.37447
2.38126
2.39556
2.43666
2.50027
2.59684
2.84123
3.07599
3.56472
4.27243
8.95216
48.5606
179.058
160.875
13.5736
2.86417
2.51682
2.43786
2.38116
2.35403
2.34631
2.34528
2.34525
2.34544
2.34576
2.34615
2.34654
2.34692
2.34726
2.34756
2.34783
2.34807
2.34827
2.34845
2.34859
2.34871
2.34881
2.34888
2.34893
2.34896
2.34901
2.31582
2.3159
2.31601
2.31617
2.31638
2.31665
2.31697
2.31733
2.31774
2.31818
2.31864
2.31915
2.31973
2.32038
2.32111
2.32198
2.32306
2.32457
2.32686
2.33077
2.33776
2.35419
2.40811
2.49404
2.6491
3.10706
4.04729
4.80488
5.68367
10.2638
61.953
185.331
139.381
13.3762
2.90495
2.4794
2.41032
2.34772
2.31553
2.30514
2.3034
2.30307
2.30306
2.30317
2.30339
2.30368
2.30398
2.30425
2.3045
2.30471
2.3049
2.30506
2.3052
2.30532
2.30542
2.3055
2.30555
2.30559
2.30562
2.30566
2.27393
2.27401
2.27411
2.27428
2.27449
2.27476
2.27508
2.27544
2.27583
2.27625
2.2767
2.27722
2.2778
2.27843
2.27914
2.27996
2.28099
2.28244
2.2847
2.2887
2.29624
2.31537
2.38223
2.49568
2.87832
4.3485
5.51621
5.78649
9.21637
31.7885
108.564
177.297
109.807
12.0554
2.91317
2.44102
2.38057
2.31437
2.27818
2.26545
2.26309
2.26241
2.26221
2.26216
2.26224
2.2624
2.2626
2.26282
2.26301
2.26317
2.26331
2.26344
2.26355
2.26364
2.26371
2.26377
2.26381
2.26384
2.26386
2.2639
2.23352
2.2336
2.2337
2.23387
2.23408
2.23435
2.23466
2.23501
2.23539
2.23581
2.23628
2.2368
2.23737
2.23798
2.23866
2.23946
2.24046
2.24188
2.24415
2.24826
2.25667
2.27888
2.35822
2.51532
3.69194
5.56909
6.75848
11.0046
27.4699
71.8787
141.186
163.104
81.4449
10.3328
2.90651
2.40904
2.34912
2.28062
2.24161
2.22702
2.22418
2.22321
2.22276
2.22258
2.22255
2.2226
2.22271
2.22285
2.223
2.22312
2.22322
2.22331
2.22338
2.22345
2.2235
2.22354
2.22357
2.22359
2.2236
2.22364
2.19451
2.19459
2.1947
2.19486
2.19508
2.19534
2.19563
2.19598
2.19637
2.1968
2.19728
2.1978
2.19836
2.19896
2.19964
2.20042
2.20141
2.20284
2.20517
2.20946
2.21884
2.24433
2.34157
2.61412
4.42531
6.19187
11.2352
29.3918
61.6344
108.336
148.851
140.623
57.7824
8.67771
2.87822
2.38636
2.31719
2.24629
2.20556
2.18973
2.18651
2.18534
2.18472
2.18435
2.18419
2.18414
2.1842
2.18429
2.18438
2.18447
2.18453
2.18459
2.18464
2.18468
2.18471
2.18473
2.18475
2.18476
2.18477
2.18481
2.15683
2.15692
2.15703
2.15719
2.1574
2.15765
2.15795
2.1583
2.1587
2.15915
2.15963
2.16014
2.1607
2.16131
2.16198
2.16277
2.16378
2.16522
2.16764
2.17217
2.18247
2.21159
2.33721
2.7948
4.84722
6.71158
18.2679
55.2675
95.5935
128.621
143.325
111.678
40.581
7.28884
2.83411
2.37164
2.28489
2.21149
2.17001
2.15349
2.14998
2.14868
2.14793
2.14744
2.14718
2.14704
2.147
2.14704
2.14708
2.14713
2.14717
2.14721
2.14723
2.14725
2.14726
2.14727
2.14727
2.14727
2.14727
2.14731
2.12042
2.12051
2.12062
2.12078
2.12098
2.12123
2.12155
2.1219
2.12231
2.12276
2.12324
2.12377
2.12434
2.12495
2.12564
2.12644
2.12747
2.12895
2.13152
2.1363
2.14734
2.18043
2.34338
2.99627
5.03609
7.12906
23.1571
72.9762
114.006
131.683
125.885
83.4141
29.1904
6.21161
2.79372
2.36289
2.25202
2.17637
2.13505
2.11825
2.11453
2.11315
2.1123
2.11173
2.1114
2.1112
2.11108
2.11103
2.11104
2.11106
2.11107
2.11108
2.11109
2.11108
2.11108
2.11107
2.11107
2.11106
2.11106
2.11109
2.08521
2.08529
2.0854
2.08556
2.08576
2.08603
2.08635
2.08671
2.08712
2.08758
2.08807
2.08861
2.08919
2.08982
2.09053
2.09136
2.09242
2.09399
2.09672
2.10168
2.11328
2.15038
2.35513
3.17251
5.08157
7.34172
24.2235
78.4111
117.686
122.219
100.343
60.3522
21.8635
5.42816
2.77269
2.35793
2.21859
2.14139
2.10071
2.08397
2.08012
2.07871
2.07778
2.07715
2.07676
2.07651
2.07635
2.07624
2.07618
2.07617
2.07616
2.07615
2.07614
2.07613
2.07611
2.07609
2.07607
2.07606
2.07605
2.07608
2.05114
2.05122
2.05133
2.05148
2.05169
2.05197
2.05229
2.05266
2.05308
2.05354
2.05405
2.0546
2.0552
2.05586
2.0566
2.05746
2.05858
2.06024
2.0631
2.06823
2.08016
2.12094
2.36815
3.30704
5.04582
7.35701
23.2519
75.7054
114.468
111.606
77.8607
43.8449
17.1816
4.928
2.76786
2.35256
2.18484
2.10705
2.06706
2.0506
2.04669
2.04529
2.04431
2.04364
2.04322
2.04293
2.04273
2.04259
2.04248
2.04242
2.04239
2.04236
2.04233
2.04231
2.04228
2.04225
2.04222
2.0422
2.04219
2.04222
2.01815
2.01823
2.01834
2.0185
2.01872
2.01899
2.01932
2.0197
2.02013
2.0206
2.02112
2.02168
2.02231
2.02299
2.02376
2.02465
2.02586
2.02762
2.03058
2.03583
2.04788
2.09157
2.37902
3.39972
4.96467
7.26284
21.746
70.3344
108.236
108.689
68.0526
34.4719
14.3025
4.80735
2.77006
2.33936
2.15114
2.07372
2.03419
2.01813
2.01422
2.01285
2.01184
2.01116
2.01071
2.01039
2.01017
2.01
2.00987
2.00977
2.00969
2.00965
2.00961
2.00957
2.00954
2.00951
2.00947
2.00944
2.00942
2.00946
1.98619
1.98627
1.98638
1.98655
1.98677
1.98705
1.98738
1.98777
1.9882
1.98869
1.98922
1.98981
1.99046
1.99117
1.99198
1.99292
1.9942
1.99604
1.99908
2.00441
2.01639
2.06179
2.38516
3.45495
4.85936
7.12263
20.0411
64.7203
101.539
106.991
70.507
33.2009
13.3115
5.31411
2.79487
2.31068
2.11784
2.04162
2.00217
1.98653
1.9827
1.98136
1.98035
1.97967
1.97919
1.97886
1.97861
1.97842
1.97827
1.97815
1.97805
1.97797
1.97792
1.97787
1.97783
1.97779
1.97775
1.97772
1.9777
1.97773
1.95521
1.9553
1.95541
1.95558
1.95581
1.95609
1.95643
1.95682
1.95727
1.95776
1.95831
1.95892
1.95959
1.96033
1.96116
1.96217
1.96353
1.96544
1.96855
1.97393
1.98568
2.03186
2.38445
3.47772
4.74044
6.94751
18.2881
59.2461
95.0898
104.207
76.2027
37.3787
15.0949
6.34729
2.88358
2.26898
2.08516
2.01083
1.97104
1.95582
1.95209
1.9508
1.94979
1.94911
1.94863
1.94828
1.94802
1.94781
1.94765
1.94751
1.94739
1.94729
1.94721
1.94716
1.94712
1.94707
1.94703
1.94699
1.94697
1.947
1.92518
1.92526
1.92538
1.92555
1.92578
1.92607
1.92641
1.92681
1.92726
1.92778
1.92834
1.92897
1.92966
1.93041
1.93129
1.93237
1.93378
1.93576
1.93892
1.94434
1.95585
2.00278
2.38021
3.47162
4.61849
6.72134
16.5505
53.57
88.8354
100.461
81.079
43.7533
18.662
7.56174
3.03697
2.23687
2.05322
1.98131
1.94081
1.92599
1.92238
1.92112
1.92013
1.91946
1.91898
1.91862
1.91835
1.91813
1.91795
1.9178
1.91767
1.91756
1.91746
1.91738
1.91733
1.91729
1.91724
1.9172
1.91718
1.91721
1.89603
1.89612
1.89624
1.89641
1.89664
1.89694
1.89729
1.89769
1.89815
1.89868
1.89926
1.8999
1.90061
1.90139
1.90232
1.90344
1.9049
1.90694
1.91015
1.91557
1.92684
1.97441
2.37077
3.43868
4.49214
6.45947
14.8713
47.4661
82.2239
96.0605
84.5034
50.9313
22.859
8.7932
3.2102
2.24547
2.02208
1.95298
1.91155
1.89705
1.89355
1.89231
1.89134
1.89069
1.8902
1.88984
1.88956
1.88934
1.88915
1.88899
1.88884
1.88872
1.88861
1.88852
1.88845
1.8884
1.88835
1.88831
1.88829
1.88832
1.86774
1.86783
1.86795
1.86812
1.86836
1.86866
1.86901
1.86942
1.86989
1.87042
1.87102
1.87167
1.87239
1.87322
1.87419
1.87535
1.87685
1.87894
1.88217
1.88757
1.89862
1.94666
2.35541
3.38314
4.36454
6.1773
13.2932
41.1256
74.8925
90.873
86.0835
57.6158
26.8791
9.81172
3.36049
2.3113
1.99183
1.92583
1.88324
1.86897
1.86555
1.86434
1.86339
1.86275
1.86227
1.86191
1.86162
1.86139
1.86119
1.86102
1.86087
1.86073
1.86062
1.86052
1.86043
1.86037
1.86032
1.86028
1.86026
1.86029
1.84026
1.84036
1.84047
1.84065
1.84089
1.84119
1.84155
1.84196
1.84244
1.84298
1.84359
1.84425
1.84499
1.84585
1.84684
1.84804
1.84957
1.8517
1.85495
1.8603
1.87114
1.9194
2.33375
3.30954
4.23764
6.29034
13.3399
37.6863
68.4419
84.8533
83.1612
59.0065
27.604
9.46927
3.22938
2.39695
1.96253
1.89974
1.85585
1.84172
1.83837
1.83717
1.83626
1.83562
1.83514
1.83478
1.83449
1.83425
1.83404
1.83387
1.83371
1.83357
1.83344
1.83334
1.83325
1.83317
1.83311
1.83308
1.83306
1.83308
1.81356
1.81366
1.81377
1.81395
1.81419
1.8145
1.81486
1.81528
1.81576
1.81631
1.81692
1.81759
1.81835
1.81924
1.82025
1.82148
1.82304
1.82519
1.82844
1.83372
1.84436
1.89255
2.3071
3.44461
4.09829
5.99882
12.0945
32.8704
61.7502
79.6043
81.3618
61.1761
29.6914
9.9672
3.32843
2.47709
1.92014
1.87397
1.82932
1.81529
1.81198
1.81079
1.8099
1.80927
1.80879
1.80843
1.80814
1.80789
1.80768
1.80749
1.80733
1.80718
1.80705
1.80694
1.80684
1.80676
1.8067
1.80665
1.80664
1.80667
1.78761
1.7877
1.78782
1.788
1.78824
1.78854
1.78891
1.78933
1.78982
1.79037
1.79099
1.79167
1.79245
1.79334
1.79438
1.79562
1.7972
1.79936
1.80261
1.80779
1.81822
1.86606
2.27651
3.34501
4.20248
6.49799
14.0611
33.8919
58.703
74.6031
74.7166
53.77
24.9399
8.34566
3.21307
2.27626
1.8963
1.84896
1.80363
1.78962
1.78635
1.78516
1.78429
1.78366
1.78319
1.78283
1.78253
1.78228
1.78206
1.78187
1.7817
1.78154
1.78141
1.78129
1.78119
1.78111
1.78104
1.78099
1.78097
1.781
1.76237
1.76246
1.76258
1.76276
1.763
1.7633
1.76367
1.7641
1.76459
1.76514
1.76575
1.76644
1.76724
1.76814
1.76919
1.77044
1.77203
1.77418
1.77742
1.78247
1.79268
1.83995
2.24285
3.24519
4.06977
6.21246
13.0268
30.8755
54.369
70.768
72.6604
53.7429
25.6278
8.68941
3.3082
2.29408
1.87353
1.82449
1.77871
1.7647
1.76144
1.76025
1.7594
1.75877
1.75831
1.75794
1.75764
1.75738
1.75716
1.75696
1.75678
1.75663
1.75649
1.75637
1.75626
1.75617
1.7561
1.75605
1.75602
1.75605
1.7378
1.7379
1.73802
1.7382
1.73844
1.73874
1.73911
1.73954
1.74003
1.74058
1.74119
1.74189
1.74269
1.7436
1.74465
1.7459
1.7475
1.74963
1.75283
1.75774
1.7677
1.81426
2.20745
3.14773
3.94242
5.95156
12.1442
28.3114
50.5831
67.2995
70.658
53.4761
26.0168
8.93415
3.38777
2.31238
1.85159
1.8005
1.75449
1.74048
1.73723
1.73604
1.7352
1.73457
1.73411
1.73374
1.73344
1.73317
1.73295
1.73274
1.73256
1.7324
1.73225
1.73213
1.73202
1.73193
1.73185
1.7318
1.73176
1.7318
1.7139
1.714
1.71411
1.71429
1.71453
1.71484
1.7152
1.71563
1.71611
1.71665
1.71727
1.71798
1.71878
1.71969
1.72074
1.72199
1.72358
1.72567
1.72883
1.7336
1.74328
1.78903
2.17133
3.05416
3.82077
5.71276
11.3846
26.107
47.2321
64.142
68.7095
53.059
26.1964
9.09479
3.45003
2.32934
1.83032
1.77701
1.73093
1.71694
1.71369
1.71249
1.71166
1.71104
1.71057
1.7102
1.70989
1.70962
1.70939
1.70918
1.70899
1.70883
1.70868
1.70855
1.70844
1.70834
1.70826
1.70821
1.70817
1.7082
1.69062
1.69072
1.69083
1.69101
1.69125
1.69155
1.69191
1.69234
1.69282
1.69336
1.69398
1.69468
1.69548
1.69638
1.69743
1.69866
1.70024
1.70229
1.70539
1.71002
1.71942
1.7643
2.13511
2.96504
3.70493
5.49358
10.7256
24.2035
44.2627
61.2636
66.8163
52.5459
26.2345
9.19159
3.49647
2.34402
1.80961
1.75401
1.70797
1.69403
1.69078
1.68957
1.68875
1.68813
1.68766
1.68729
1.68698
1.6867
1.68647
1.68625
1.68606
1.68589
1.68573
1.6856
1.68549
1.68539
1.68531
1.68525
1.68521
1.68524
1.66794
1.66804
1.66816
1.66833
1.66857