/*--------------------------------*- C++ -*----------------------------------*\
  =========                 |
  \\      /  F ield         | OpenFOAM: The Open Source CFD Toolbox
   \\    /   O peration     | Website:  https://openfoam.org
    \\  /    A nd           | Version:  12
     \\/     M anipulation  |
\*---------------------------------------------------------------------------*/
FoamFile
{
    format      ascii;
    class       volScalarField;
    location    "400";
    object      p;
}
// * * * * * * * * * * * * * * * * * * * * * * * * * * * * * * * * * * * * * //

dimensions      [0 2 -2 0 0 0 0];

internalField   nonuniform List<scalar> 
16227
(
0.0347067
0.0348848
0.0352404
0.0357734
0.0364838
0.0373709
0.0384344
0.0396731
0.0410854
0.0426693
0.0444219
0.0463394
0.0484172
0.05065
0.0530311
0.0555521
0.0582036
0.0609744
0.0638517
0.0668214
0.0698676
0.0729731
0.0761195
0.0792874
0.0824567
0.0856068
0.0887172
0.091768
0.0947398
0.0976147
0.100376
0.10301
0.105504
0.107848
0.110034
0.112059
0.11392
0.115617
0.117152
0.11853
0.119756
0.120839
0.121786
0.122607
0.123312
0.123912
0.124417
0.124837
0.125182
0.125463
0.125687
0.125865
0.126002
0.126107
0.126185
0.126242
0.126283
0.12631
0.126326
0.126334
0.0345756
0.0347536
0.0351093
0.0356426
0.0363533
0.037241
0.0383052
0.039545
0.0409588
0.0425445
0.0442995
0.0462205
0.0483026
0.0505405
0.0529275
0.0554556
0.0581153
0.0608954
0.0637832
0.0667645
0.0698234
0.0729425
0.0761032
0.079286
0.0824704
0.0856356
0.0887608
0.0918258
0.0948109
0.0976982
0.100471
0.103113
0.105614
0.107964
0.110154
0.112181
0.114041
0.115736
0.117268
0.118642
0.119863
0.120939
0.121879
0.122693
0.12339
0.123982
0.12448
0.124892
0.12523
0.125504
0.125722
0.125894
0.126026
0.126127
0.126201
0.126255
0.126292
0.126318
0.126333
0.12634
0.0342859
0.034464
0.0348199
0.0353537
0.0360651
0.036954
0.0380198
0.039262
0.040679
0.0422689
0.0440295
0.0459579
0.0480493
0.0502984
0.0526986
0.0552423
0.05792
0.0607208
0.0636318
0.0666389
0.0697258
0.0728749
0.0760674
0.0792831
0.082501
0.0856997
0.0888578
0.0919542
0.0949689
0.0978833
0.10068
0.103343
0.10586
0.108221
0.110419
0.112449
0.114309
0.116001
0.117526
0.118889
0.120098
0.12116
0.122084
0.122882
0.123562
0.124137
0.124618
0.125014
0.125336
0.125595
0.125799
0.125958
0.126079
0.12617
0.126235
0.126282
0.126314
0.126334
0.126347
0.126352
0.0337999
0.0339782
0.0343345
0.034869
0.0355817
0.0364723
0.0375408
0.0387868
0.040209
0.041806
0.0435757
0.0455165
0.0476231
0.0498905
0.0523128
0.0548825
0.0575904
0.0604256
0.0633753
0.0664258
0.0695604
0.0727604
0.0760065
0.0792779
0.0825526
0.0858082
0.089022
0.0921719
0.0952366
0.0981967
0.101033
0.10373
0.106274
0.108655
0.110866
0.112903
0.114762
0.116447
0.117959
0.119306
0.120493
0.121531
0.12243
0.123199
0.123851
0.124397
0.124848
0.125217
0.125512
0.125746
0.125927
0.126065
0.126167
0.12624
0.126291
0.126326
0.126348
0.126361
0.126369
0.126372
0.0331268
0.0333052
0.033662
0.0341973
0.0349113
0.0358042
0.036876
0.0381268
0.0395559
0.0411623
0.0429444
0.0449013
0.0470285
0.049321
0.0517733
0.0543787
0.0571282
0.0600107
0.0630139
0.0661254
0.0693266
0.0725981
0.0759195
0.0792694
0.0826242
0.08596
0.0892525
0.0924778
0.0956132
0.0986377
0.101531
0.104275
0.106857
0.109266
0.111495
0.113539
0.115397
0.117071
0.118566
0.119888
0.121045
0.122049
0.12291
0.123639
0.124251
0.124756
0.125167
0.125496
0.125754
0.125953
0.126102
0.12621
0.126285
0.126335
0.126365
0.126383
0.126391
0.126395
0.126395
0.126395
0.032278
0.0324565
0.0328136
0.0333497
0.034065
0.0349601
0.0360355
0.0372916
0.0387286
0.040346
0.0421427
0.0441185
0.0462707
0.0485942
0.0510839
0.0537338
0.0565352
0.0594771
0.0625488
0.0657378
0.0690239
0.0723869
0.0758052
0.0792561
0.0827144
0.0861541
0.0895486
0.0928718
0.0960987
0.0992066
0.102173
0.104978
0.107609
0.110053
0.112304
0.114356
0.116211
0.117871
0.119341
0.12063
0.121748
0.122706
0.123518
0.124196
0.124754
0.125206
0.125565
0.125844
0.126055
0.126209
0.126316
0.126386
0.126428
0.126448
0.126453
0.126449
0.126441
0.126431
0.126423
0.126419
0.0312534
0.0314318
0.0317889
0.0323254
0.0330416
0.0339386
0.0350174
0.0362788
0.037724
0.0393534
0.0411663
0.043163
0.045344
0.0477038
0.0502375
0.0529401
0.0558032
0.0588174
0.0619727
0.0652559
0.0686459
0.0721214
0.0756597
0.0792361
0.0828233
0.0863925
0.0899145
0.09336
0.0967013
0.0999132
0.10297
0.105852
0.108541
0.111028
0.113305
0.115367
0.117216
0.118855
0.120293
0.121539
0.122606
0.123506
0.124256
0.124869
0.125361
0.125748
0.126042
0.126259
0.126411
0.12651
0.126567
0.126591
0.126591
0.126575
0.126549
0.12652
0.126491
0.126466
0.126447
0.126438
0.0300487
0.0302269
0.0305836
0.0311197
0.031836
0.0327341
0.0338154
0.0350815
0.0365344
0.0381757
0.0400058
0.0420254
0.0442368
0.046637
0.0492212
0.0519843
0.0549187
0.0580181
0.0612721
0.0646672
0.0681817
0.0717926
0.075476
0.0792051
0.0829495
0.0866774
0.0903556
0.0939513
0.097433
0.100772
0.10394
0.106913
0.109675
0.112212
0.114518
0.116589
0.118427
0.120039
0.121435
0.122627
0.123629
0.124457
0.12513
0.125663
0.126075
0.126381
0.126598
0.12674
0.126821
0.126855
0.126851
0.12682
0.126772
0.126713
0.126651
0.126591
0.126537
0.126494
0.126464
0.126448
0.0286625
0.02884
0.0291955
0.0297302
0.0304453
0.0313429
0.0324252
0.0336946
0.0351538
0.0368059
0.038653
0.0406961
0.0429384
0.0453825
0.0480221
0.0508528
0.0538682
0.0570647
0.0604321
0.0639576
0.0676182
0.0713893
0.0752456
0.0791573
0.083091
0.0870103
0.0908775
0.094655
0.0983066
0.1018
0.105101
0.108184
0.11103
0.113626
0.115963
0.118042
0.119865
0.12144
0.122782
0.123904
0.124826
0.125566
0.126145
0.126581
0.126895
0.127106
0.12723
0.127284
0.127282
0.127238
0.127164
0.127069
0.126964
0.126856
0.126752
0.126656
0.126575
0.126511
0.126467
0.126444
0.027096
0.0272724
0.0276257
0.0281576
0.0288696
0.0297644
0.0308453
0.0321154
0.0335785
0.035239
0.037101
0.039167
0.0414409
0.0439296
0.0466275
0.0495304
0.0526356
0.0559411
0.059437
0.0631116
0.066941
0.070899
0.0749584
0.0790863
0.083245
0.0873929
0.0914866
0.0954823
0.0993376
0.103014
0.106475
0.109687
0.112632
0.115294
0.117666
0.119748
0.121547
0.123074
0.124346
0.125382
0.126205
0.126837
0.127302
0.127623
0.127821
0.127918
0.127934
0.127884
0.127786
0.127654
0.127498
0.127331
0.127161
0.126997
0.126845
0.12671
0.126597
0.126509
0.12645
0.126419
0.0253517
0.0255263
0.0258761
0.0264032
0.0271096
0.0279987
0.0290746
0.0303417
0.031805
0.0334702
0.0353433
0.0374295
0.0397335
0.0422645
0.045022
0.0480011
0.0512037
0.054629
0.0582679
0.0621103
0.0661324
0.0703062
0.0746021
0.0789839
0.0834083
0.0878276
0.092191
0.0964467
0.100545
0.10444
0.108088
0.111453
0.11451
0.117246
0.119653
0.121733
0.123497
0.12496
0.126143
0.127072
0.127773
0.128274
0.128603
0.128786
0.128848
0.128813
0.128703
0.128534
0.128326
0.128092
0.127844
0.127595
0.127353
0.127126
0.126921
0.126742
0.126594
0.12648
0.126404
0.126365
0.0234318
0.0236038
0.0239484
0.0244683
0.0251659
0.0260454
0.0271118
0.0283708
0.0298289
0.0314933
0.0333721
0.0354733
0.0378031
0.0403722
0.0431891
0.0462472
0.0495521
0.0531056
0.0569006
0.0609287
0.0651687
0.0695904
0.0741603
0.0788382
0.0835754
0.0883158
0.0929996
0.0975649
0.101952
0.106106
0.109976
0.113517
0.116704
0.11952
0.12196
0.124029
0.125742
0.12712
0.128191
0.128986
0.129539
0.129882
0.130048
0.130069
0.129972
0.129784
0.129528
0.129224
0.128891
0.128543
0.128193
0.127852
0.12753
0.127234
0.126969
0.126743
0.126557
0.126415
0.126319
0.126271
0.0213386
0.0215069
0.0218444
0.022354
0.0230389
0.0239038
0.024955
0.0261994
0.0276451
0.0293013
0.0311781
0.0332864
0.0356357
0.0382376
0.0411075
0.0442437
0.0476537
0.0513422
0.055305
0.0595357
0.0640203
0.0687242
0.0736099
0.0786328
0.0837372
0.0888576
0.0939222
0.0988563
0.103587
0.108049
0.112179
0.115925
0.119258
0.122161
0.12463
0.126674
0.128315
0.129582
0.130511
0.13114
0.131511
0.131664
0.131638
0.131467
0.131186
0.130822
0.130401
0.129944
0.12947
0.128995
0.128531
0.12809
0.12768
0.127309
0.126981
0.126702
0.126475
0.126302
0.126186
0.126128
0.0190747
0.0192382
0.0195662
0.0200619
0.0207292
0.0215737
0.0226025
0.0238243
0.0252485
0.0268865
0.0287509
0.0308557
0.0332143
0.0358405
0.0387531
0.0419629
0.0454769
0.049304
0.0534448
0.0578966
0.0626515
0.0676732
0.0729206
0.0783444
0.0838803
0.089451
0.0949693
0.100344
0.105486
0.110313
0.11475
0.118734
0.122231
0.125225
0.127714
0.129714
0.131255
0.132376
0.133124
0.133548
0.133699
0.133624
0.13337
0.132977
0.132482
0.131917
0.131309
0.130681
0.130051
0.129436
0.128848
0.128297
0.127793
0.12734
0.126944
0.126609
0.126338
0.126134
0.125996
0.125927
0.0166444
0.0168017
0.0171173
0.0175949
0.018239
0.019056
0.020054
0.021243
0.0226346
0.024242
0.0260805
0.0281676
0.0305212
0.0331587
0.0361029
0.0393746
0.0429853
0.0469496
0.051275
0.0559639
0.0610148
0.0663922
0.0720525
0.0779417
0.0839856
0.0900911
0.0961523
0.102056
0.107691
0.112954
0.117753
0.122013
0.125694
0.12878
0.131274
0.133203
0.134606
0.135537
0.136057
0.136227
0.136109
0.135762
0.13524
0.134588
0.133849
0.133056
0.132238
0.131419
0.130618
0.12985
0.129127
0.128459
0.127853
0.127314
0.126846
0.126453
0.126136
0.125897
0.125738
0.125658
0.0140531
0.0142025
0.0145026
0.0149573
0.0155718
0.0163531
0.0173103
0.0184549
0.0198002
0.0213618
0.0231577
0.0252089
0.0275381
0.0301682
0.0331266
0.0364432
0.0401372
0.0442306
0.0487409
0.0536782
0.0590489
0.0648221
0.0709528
0.0773823
0.0840248
0.0907686
0.0974826
0.104025
0.110254
0.116042
0.12127
0.125849
0.129734
0.132908
0.135385
0.137203
0.138419
0.139103
0.139333
0.139189
0.138746
0.138076
0.137238
0.136288
0.13527
0.13422
0.133169
0.13214
0.131152
0.13022
0.129353
0.12856
0.127846
0.127217
0.126674
0.12622
0.125856
0.125582
0.125399
0.125308
0.0113081
0.011448
0.0117291
0.0121555
0.0127331
0.0134694
0.0143744
0.015461
0.0167442
0.0182418
0.0199746
0.0219673
0.0242475
0.0268446
0.0297919
0.0331287
0.0368844
0.0410905
0.045778
0.0509671
0.0566753
0.0628848
0.0695508
0.0766077
0.0839582
0.0914675
0.0989721
0.106291
0.113244
0.119664
0.125404
0.130353
0.134459
0.137712
0.140137
0.14179
0.142751
0.143113
0.142978
0.142446
0.14161
0.140554
0.139351
0.138057
0.136723
0.135387
0.134079
0.132821
0.131632
0.130524
0.129505
0.128581
0.127756
0.127034
0.126414
0.125898
0.125485
0.125176
0.12497
0.124867
0.00841862
0.008547
0.0088052
0.00919761
0.00973021
0.0104113
0.0112515
0.0122646
0.0134674
0.0148799
0.0165252
0.0184319
0.0206327
0.0231637
0.0260655
0.0293885
0.0331732
0.0374643
0.0423093
0.0477434
0.0537979
0.060482
0.0677516
0.0755363
0.0837258
0.0921593
0.100629
0.108903
0.116743
0.123934
0.130285
0.135662
0.140007
0.143317
0.145636
0.14705
0.147666
0.147609
0.147012
0.146002
0.144692
0.143181
0.141552
0.139867
0.138179
0.136526
0.134938
0.133435
0.132032
0.130739
0.129562
0.128503
0.127565
0.126747
0.12605
0.125471
0.125011
0.124666
0.124437
0.124322
0.00539562
0.00551054
0.00574181
0.00609395
0.00657314
0.00718788
0.00794939
0.00887209
0.00997395
0.0112768
0.0128066
0.0145948
0.0166792
0.0191029
0.0219147
0.0251773
0.0289448
0.0332773
0.0382445
0.0439029
0.0503051
0.057491
0.0654304
0.0740556
0.0832463
0.0928031
0.102462
0.111919
0.120859
0.128997
0.136084
0.141954
0.146546
0.149872
0.15201
0.153079
0.153233
0.152633
0.151452
0.149852
0.147973
0.145927
0.143807
0.14168
0.1396
0.137602
0.135713
0.13395
0.132323
0.130839
0.129499
0.128304
0.127252
0.126341
0.125567
0.124927
0.124419
0.12404
0.123789
0.123663
0.00225226
0.00235163
0.00255186
0.00285733
0.00327419
0.00381099
0.00447904
0.00529303
0.00627154
0.00743786
0.00881994
0.0104519
0.0123762
0.0146426
0.0173085
0.0204491
0.0241354
0.0284466
0.0334784
0.0393173
0.0460465
0.0537417
0.0624109
0.0720025
0.0823845
0.0933201
0.104462
0.115407
0.125729
0.135044
0.143025
0.149463
0.154298
0.157575
0.159417
0.160001
0.15953
0.158222
0.156303
0.15398
0.151419
0.14875
0.14607
0.14345
0.14094
0.13857
0.136362
0.134328
0.132472
0.130794
0.129292
0.127963
0.126799
0.125796
0.124948
0.12425
0.123698
0.123287
0.123014
0.122878
-0.000996209
-0.000914384
-0.000749304
-0.000496885
-0.000151293
0.000295644
0.00085504
0.00154124
0.00237271
0.00337321
0.00457203
0.00600532
0.00771877
0.00976851
0.0122196
0.0151593
0.0186798
0.0228821
0.0278905
0.0338319
0.0408317
0.0490141
0.0584626
0.0691554
0.0809839
0.093622
0.106631
0.119464
0.131542
0.142332
0.151395
0.158475
0.163521
0.166636
0.168019
0.167923
0.166632
0.164401
0.161549
0.15834
0.154972
0.151582
0.148273
0.145112
0.142138
0.139376
0.136838
0.134528
0.132441
0.130573
0.128913
0.127454
0.126184
0.125095
0.124179
0.123427
0.122834
0.122393
0.122102
0.121957
-0.00433242
-0.00427006
-0.00414402
-0.00395078
-0.00368515
-0.00333956
-0.00290394
-0.00236477
-0.00170473
-0.00090057
7.69327e-05
0.00126486
0.00271048
0.00447467
0.00662928
0.00927156
0.0125174
0.0164913
0.0213491
0.0272685
0.0344346
0.0430427
0.0532733
0.0651743
0.0786889
0.0934746
0.108883
0.124172
0.138532
0.151216
0.161621
0.169424
0.174611
0.177388
0.178079
0.177038
0.174629
0.171177
0.167147
0.162861
0.158544
0.154336
0.150332
0.146586
0.143124
0.139958
0.137086
0.134502
0.132192
0.13014
0.128332
0.126753
0.125387
0.124221
0.123244
0.122445
0.121816
0.12135
0.121042
0.120888
-0.00773702
-0.00769584
-0.00761239
-0.00748389
-0.00730603
-0.00707254
-0.00677493
-0.00640145
-0.00593665
-0.00535953
-0.00464239
-0.00374944
-0.00263349
-0.00123194
0.000532288
0.00276345
0.00559771
0.0091851
0.0137162
0.019428
0.0265819
0.0354678
0.0464251
0.0596267
0.0752749
0.0927512
0.111215
0.12969
0.147014
0.162115
0.174153
0.18272
0.187887
0.190039
0.189702
0.187399
0.183554
0.178508
0.173005
0.167422
0.16201
0.156891
0.152136
0.147775
0.143813
0.140242
0.137045
0.1342
0.13168
0.129462
0.127521
0.125836
0.124386
0.123155
0.122127
0.12129
0.120632
0.120146
0.119825
0.119665
-0.0111889
-0.0111703
-0.0111323
-0.0110732
-0.0109898
-0.0108777
-0.0107306
-0.0105395
-0.0102922
-0.00997119
-0.00955279
-0.00900461
-0.00828307
-0.00732711
-0.0060585
-0.00437034
-0.00211403
0.000886866
0.00485921
0.0101002
0.0169623
0.0258399
0.0372583
0.0518486
0.0657697
0.0855375
0.106844
0.128721
0.149661
0.168142
0.182925
0.193297
0.199312
0.201515
0.20068
0.19767
0.193411
0.186328
0.17895
0.171821
0.165185
0.159083
0.153543
0.148559
0.144105
0.140148
0.13665
0.133568
0.130864
0.128502
0.12645
0.12468
0.123165
0.121884
0.120818
0.119953
0.119275
0.118775
0.118445
0.118281
-0.0146654
-0.0146704
-0.01468
-0.0146934
-0.0147095
-0.0147258
-0.0147391
-0.0147442
-0.0147331
-0.014694
-0.0146092
-0.0144532
-0.0141894
-0.0137641
-0.0131035
-0.0121045
-0.0106175
-0.00844578
-0.00533006
-0.000920476
0.00523517
0.0136299
0.0249005
0.0387862
0.0588902
0.0816344
0.107905
0.1355
0.162017
0.185063
0.202697
0.213968
0.219213
0.219553
0.216329
0.210345
0.203615
0.194526
0.184625
0.175771
0.167831
0.160708
0.154384
0.148802
0.143892
0.139591
0.13583
0.132551
0.129699
0.127227
0.125094
0.123264
0.121705
0.120393
0.119306
0.118425
0.117737
0.11723
0.116896
0.11673
-0.0181431
-0.018172
-0.0182301
-0.0183179
-0.0184359
-0.0185848
-0.0187648
-0.0189752
-0.0192141
-0.0194767
-0.019754
-0.0200308
-0.0202823
-0.0204684
-0.0205281
-0.0203713
-0.0198599
-0.0187958
-0.016898
-0.013785
-0.00888829
-0.00155033
0.00890179
0.0251814
0.0465367
0.0699109
0.102229
0.136558
0.170248
0.199707
0.221831
0.235014
0.23987
0.238353
0.232801
0.225534
0.213426
0.202165
0.189359
0.178881
0.169629
0.161515
0.154469
0.148356
0.143061
0.13848
0.134519
0.131097
0.128145
0.125606
0.123428
0.12157
0.119995
0.118674
0.117583
0.116701
0.116014
0.115509
0.115177
0.115012
-0.0215975
-0.0216502
-0.0217566
-0.0219183
-0.0221384
-0.0224203
-0.0227685
-0.0231878
-0.0236831
-0.0242586
-0.0249166
-0.0256553
-0.0264676
-0.0273334
-0.0282153
-0.0290488
-0.0297235
-0.030064
-0.0297971
-0.0285406
-0.0256302
-0.0201036
-0.0115754
0.00597596
0.0288067
0.0572221
0.0975668
0.142453
0.187733
0.227114
0.254886
0.268618
0.270049
0.263236
0.252319
0.240781
0.224252
0.20786
0.1925
0.180663
0.17019
0.161222
0.153589
0.147069
0.141498
0.136733
0.132652
0.129159
0.12617
0.123614
0.121435
0.119585
0.118024
0.11672
0.115645
0.11478
0.114106
0.113611
0.113286
0.113125
-0.0250045
-0.0250802
-0.025233
-0.0254663
-0.0257852
-0.0261963
-0.0267089
-0.0273333
-0.0280826
-0.0289711
-0.0300145
-0.0312282
-0.0326267
-0.0342182
-0.0359996
-0.0379483
-0.0400043
-0.0420462
-0.0438485
-0.0450894
-0.0451271
-0.0426681
-0.0376383
-0.0197587
0.00326957
0.0358143
0.0862826
0.146234
0.209535
0.264768
0.30069
0.313253
0.307286
0.291321
0.272498
0.254061
0.232624
0.211256
0.193621
0.180614
0.169121
0.159553
0.151549
0.144801
0.139101
0.134274
0.130179
0.126702
0.123746
0.121234
0.119104
0.117303
0.11579
0.114529
0.113494
0.112661
0.112014
0.11154
0.111229
0.111074
-0.0283407
-0.0284377
-0.0286339
-0.0289338
-0.0293449
-0.0298771
-0.0305439
-0.0313619
-0.0323523
-0.0335403
-0.0349565
-0.0366358
-0.0386187
-0.040948
-0.0436658
-0.0468087
-0.0503939
-0.0543951
-0.0586891
-0.0630982
-0.0671986
-0.0695343
-0.070458
-0.053907
-0.0339643
0.00176662
0.0632171
0.144521
0.237537
0.320622
0.368909
0.375116
0.352957
0.320854
0.290441
0.263892
0.237129
0.211458
0.192048
0.178218
0.16609
0.156284
0.14819
0.141436
0.135789
0.131051
0.127065
0.123702
0.120861
0.118459
0.116432
0.114725
0.113295
0.112106
0.111133
0.110351
0.109745
0.109301
0.10901
0.108865
-0.0315839
-0.0317
-0.0319349
-0.0322944
-0.0327879
-0.0334282
-0.0342328
-0.0352243
-0.0364314
-0.0378905
-0.0396468
-0.0417559
-0.0442862
-0.0473202
-0.0509535
-0.0552958
-0.060468
-0.0665875
-0.0736996
-0.0818587
-0.0910768
-0.100074
-0.11014
-0.0982016
-0.0870682
-0.0529888
0.0162988
0.125172
0.269842
0.408202
0.476888
0.461874
0.405393
0.346777
0.30127
0.266015
0.235481
0.207039
0.18689
0.172974
0.160831
0.151248
0.143397
0.1369
0.131519
0.127041
0.123296
0.120156
0.117516
0.115295
0.113427
0.111858
0.110548
0.109462
0.108573
0.10786
0.107308
0.106904
0.106639
0.106508
-0.0347145
-0.0348467
-0.0351144
-0.0355243
-0.0360872
-0.0368183
-0.0377385
-0.038875
-0.0402632
-0.0419491
-0.0439915
-0.0464651
-0.049466
-0.0531162
-0.057569
-0.0630149
-0.069694
-0.0779071
-0.0879403
-0.100166
-0.115218
-0.132401
-0.15488
-0.152569
-0.159588
-0.138528
-0.0761842
0.0563727
0.290421
0.556927
0.662006
0.579662
0.451866
0.355341
0.295871
0.25623
0.225376
0.19682
0.177507
0.164559
0.153187
0.144349
0.13712
0.131177
0.126293
0.122251
0.118889
0.116082
0.113732
0.111761
0.110107
0.108722
0.107567
0.106611
0.105829
0.105203
0.104718
0.104363
0.10413
0.104015
-0.0377155
-0.0378605
-0.0381541
-0.0386034
-0.0392204
-0.0400215
-0.0410298
-0.0422756
-0.0437992
-0.0456531
-0.0479068
-0.0506505
-0.054003
-0.058121
-0.0632108
-0.0695412
-0.0774687
-0.0874906
-0.100178
-0.116292
-0.13722
-0.16312
-0.200048
-0.213107
-0.249613
-0.261584
-0.246422
-0.142625
0.203764
0.829753
1.00672
0.701965
0.447625
0.320137
0.262898
0.230645
0.205312
0.180615
0.163874
0.15298
0.14318
0.135616
0.129405
0.12432
0.120162
0.116732
0.113887
0.111521
0.109544
0.10789
0.106504
0.105344
0.104376
0.103576
0.102921
0.102397
0.101991
0.101693
0.101498
0.101401
-0.0405732
-0.0407275
-0.0410394
-0.0415164
-0.0421703
-0.0430182
-0.0440836
-0.0453979
-0.0470033
-0.0489554
-0.0513288
-0.0542226
-0.0577698
-0.0621502
-0.0676083
-0.0744738
-0.0831953
-0.0944374
-0.109043
-0.128156
-0.153934
-0.187329
-0.237695
-0.2699
-0.342552
-0.410503
-0.507778
-0.626057
-0.532407
1.06747
1.59078
0.591337
0.286092
0.210069
0.194816
0.190199
0.176691
0.159502
0.146671
0.138662
0.131089
0.125247
0.120411
0.116457
0.113231
0.11057
0.108368
0.106537
0.105009
0.10373
0.102657
0.101758
0.101008
0.100385
0.0998754
0.0994661
0.0991484
0.0989153
0.0987625
0.0986865
-0.0432781
-0.0434377
-0.0437604
-0.0442528
-0.0449264
-0.045797
-0.0468872
-0.0482269
-0.0498566
-0.0518304
-0.0542216
-0.0571291
-0.0606874
-0.0650815
-0.07057
-0.0775106
-0.0863945
-0.097981
-0.113289
-0.133723
-0.162035
-0.199491
-0.25799
-0.307962
-0.409352
-0.5357
-0.765801
-1.28596
-2.64823
-0.432522
-0.0950221
0.0366092
0.106547
0.143902
0.143823
0.13554
0.127142
0.122365
0.117404
0.113585
0.110393
0.107784
0.105654
0.103892
0.102432
0.101217
0.100198
0.0993416
0.0986194
0.0980106
0.0974988
0.0970718
0.0967198
0.0964357
0.0962141
0.0960509
0.0959436
0.0958902
-0.045824
-0.0459856
-0.0463117
-0.0468081
-0.0474847
-0.0483552
-0.0494389
-0.050762
-0.0523596
-0.0542791
-0.0565853
-0.0593662
-0.0627433
-0.0668849
-0.0720311
-0.0785236
-0.0868282
-0.097693
-0.112149
-0.131637
-0.159139
-0.195581
-0.253477
-0.313859
-0.422627
-0.575252
-0.833711
-1.41038
-3.01781
-2.45329
-1.80209
-0.401889
-0.0953052
0.0377427
0.105227
0.112721
0.110974
0.10666
0.10496
0.102723
0.101068
0.0996853
0.0985568
0.0976331
0.09686
0.0962138
0.0956676
0.0952005
0.0947987
0.0944519
0.0941521
0.0938939
0.0936734
0.0934879
0.0933354
0.0932146
0.0931246
0.0930649
0.093035
-0.0482088
-0.0483694
-0.0486926
-0.0491831
-0.0498482
-0.0506985
-0.0517486
-0.0530181
-0.0545337
-0.0563311
-0.0584593
-0.0609855
-0.0640029
-0.0676411
-0.0720879
-0.0776193
-0.0846014
-0.0936564
-0.105635
-0.121757
-0.144774
-0.174887
-0.222809
-0.283735
-0.378171
-0.516062
-0.6983
-0.999787
-1.3245
-0.943427
-1.09142
-0.810068
-0.277425
-0.0834994
0.0218404
0.0811869
0.0864428
0.0868179
0.086088
0.087118
0.0875877
0.0881382
0.0886429
0.0890584
0.0893967
0.0896589
0.0898621
0.090012
0.0901162
0.0901842
0.0902235
0.0902405
0.0902415
0.0902317
0.0902155
0.0901967
0.0901782
0.0901621
0.0901506
0.0901446
-0.0504334
-0.0505906
-0.0509063
-0.0513831
-0.0520257
-0.0528404
-0.0538361
-0.0550239
-0.0564193
-0.0580426
-0.0599213
-0.0620929
-0.0646105
-0.0675459
-0.0710055
-0.0751561
-0.0801995
-0.086537
-0.0946661
-0.105375
-0.120765
-0.140496
-0.171188
-0.224225
-0.292193
-0.396841
-0.503477
-0.639284
-0.742351
-0.641825
-0.378497
0.0219592
0.0239701
0.0403357
0.0445068
0.0626029
0.0619143
0.0623182
0.0654618
0.0691487
0.0723931
0.0751785
0.0775994
0.0795682
0.0811769
0.082479
0.0835317
0.0843757
0.0850483
0.0855825
0.0860039
0.0863339
0.0865904
0.0867881
0.0869386
0.0870511
0.087133
0.0871897
0.0872254
0.0872428
-0.0525015
-0.0526538
-0.0529589
-0.0534173
-0.0540307
-0.0548007
-0.0557294
-0.0568189
-0.0580721
-0.0594913
-0.0610793
-0.0628391
-0.0647755
-0.0668919
-0.0691941
-0.0717122
-0.0744384
-0.0774967
-0.0809166
-0.0849448
-0.0906626
-0.0976897
-0.106722
-0.146121
-0.184619
-0.256151
-0.316076
-0.389689
-0.451213
-0.563603
-0.22968
0.383645
0.33311
0.126263
0.051815
0.0316259
0.0331485
0.0362133
0.0445058
0.051234
0.057486
0.0625503
0.0668818
0.0703662
0.0732084
0.0755128
0.0773793
0.0788861
0.0801006
0.0810784
0.081863
0.0824903
0.0829896
0.0833843
0.0836929
0.0839301
0.0841074
0.0842331
0.0843137
0.0843532
-0.0544181
-0.0545651
-0.0548585
-0.0552971
-0.0558794
-0.0566022
-0.0574612
-0.0584494
-0.0595566
-0.0607676
-0.0620601
-0.0634018
-0.064748
-0.0660318
-0.0671545
-0.068001
-0.0683405
-0.0680129
-0.0665289
-0.0635776
-0.0588605
-0.0524294
-0.037823
-0.0590263
-0.0677305
-0.111539
-0.166543
-0.232581
-0.301966
-0.291373
-0.216619
0.0158416
0.1215
0.0531225
0.00359485
-0.0190917
-0.00219755
0.00861272
0.0235471
0.0338332
0.0433273
0.0506558
0.0568327
0.0617381
0.0657258
0.0689494
0.071558
0.0736674
0.0753739
0.0767541
0.0778683
0.0787657
0.0794857
0.0800598
0.0805126
0.0808636
0.081128
0.081317
0.0814386
0.0814984
-0.0561889
-0.0563311
-0.0566139
-0.0570345
-0.0575884
-0.0582687
-0.0590649
-0.0599621
-0.0609387
-0.0619638
-0.0629931
-0.0639631
-0.0647851
-0.0653302
-0.0654063
-0.064771
-0.0629923
-0.0596612
-0.053778
-0.0445563
-0.0300557
-0.011015
0.0267186
0.0282393
0.0516568
0.0336198
-0.038038
-0.10469
-0.181423
-0.275506
-0.257232
-0.190214
-0.300115
-0.123702
-0.0822071
-0.077872
-0.0400438
-0.0178656
0.00406869
0.0179234
0.0305908
0.0399777
0.047822
0.0539739
0.0589577
0.0629688
0.0662109
0.0688342
0.0709607
0.0726849
0.0740816
0.0752112
0.0761217
0.076851
0.0774291
0.0778793
0.0782198
0.078464
0.0786217
0.0786993
-0.0578193
-0.057958
-0.058233
-0.0586402
-0.0591731
-0.0598214
-0.0605704
-0.061399
-0.0622772
-0.0631623
-0.0639939
-0.0646854
-0.0651161
-0.0651128
-0.0644166
-0.0626965
-0.0593729
-0.0538651
-0.0447541
-0.0309711
-0.00901011
0.019669
0.0757444
0.102973
0.164405
0.196047
0.130953
-0.0563948
-0.230126
-0.405359
-0.424253
-0.343284
-0.467066
-0.239872
-0.15218
-0.12453
-0.0718571
-0.0398052
-0.0118645
0.00477358
0.0200826
0.031053
0.0402285
0.0473483
0.0531103
0.0577291
0.0614624
0.0644856
0.0669401
0.0689348
0.0705554
0.0718707
0.0729343
0.0737894
0.0744696
0.0750011
0.0754044
0.0756943
0.0758818
0.0759742
-0.0593133
-0.0594504
-0.0597219
-0.0601227
-0.0606451
-0.0612769
-0.0620009
-0.0627925
-0.063617
-0.0644255
-0.0651497
-0.0656904
-0.065911
-0.0656185
-0.0645267
-0.06227
-0.0581988
-0.0516814
-0.0410675
-0.0252969
0.00011303
0.0330132
0.0966609
0.145901
0.2448
0.348663
0.271365
-0.0175072
-0.276309
-0.396446
-0.394287
-0.325521
-0.401506
-0.255866
-0.17903
-0.148654
-0.0915634
-0.0540108
-0.0224475
-0.00447147
0.0125445
0.0243789
0.0343949
0.0420969
0.0483509
0.0533551
0.0574092
0.0606974
0.063373
0.0655533
0.0673305
0.0687779
0.0699524
0.0708998
0.071656
0.0722486
0.0726994
0.0730243
0.0732347
0.0733385
-0.0606727
-0.0608106
-0.0610836
-0.0614864
-0.0620109
-0.0626445
-0.0633695
-0.064161
-0.0649837
-0.0657887
-0.0665078
-0.0670416
-0.0672564
-0.0669679
-0.0659028
-0.0637187
-0.0597939
-0.0535941
-0.0435007
-0.0288233
-0.00507563
0.0245511
0.0799572
0.136399
0.233666
0.348055
0.212193
-0.0306556
-0.254913
-0.309144
-0.233244
-0.235519
-0.298253
-0.219843
-0.171988
-0.150508
-0.0978886
-0.0591403
-0.0266638
-0.00909687
0.00840829
0.0202543
0.030541
0.0383724
0.0447881
0.049926
0.0541116
0.0575171
0.0602976
0.0625721
0.0644335
0.0659556
0.0671957
0.0681997
0.0690039
0.0696362
0.0701184
0.0704667
0.0706927
0.0708042
-0.0618967
-0.0620379
-0.0623178
-0.0627314
-0.0632712
-0.0639255
-0.0646785
-0.0655076
-0.0663809
-0.0672552
-0.0680698
-0.0687385
-0.0691485
-0.0691465
-0.0685073
-0.066965
-0.0640178
-0.0593605
-0.0516512
-0.0408727
-0.0233797
-0.00384248
0.0306217
0.0734218
0.116466
0.130019
-0.00560515
-0.143191
-0.239607
-0.235256
-0.204682
-0.208145
-0.203947
-0.170099
-0.14709
-0.135736
-0.0918489
-0.0555218
-0.0247103
-0.00902859
0.00772887
0.0187341
0.0287109
0.0362139
0.0424539
0.0474663
0.0515882
0.0549593
0.0577272
0.0600032
0.0618756
0.0634145
0.0646743
0.0656988
0.0665226
0.0671726
0.0676699
0.0680299
0.0682639
0.0683796
-0.0629819
-0.0631289
-0.0634207
-0.0638532
-0.0644204
-0.065113
-0.0659187
-0.0668194
-0.0677903
-0.0687978
-0.0697961
-0.0707224
-0.0714961
-0.0720108
-0.0721152
-0.0716542
-0.0703036
-0.0680513
-0.0639678
-0.0587856
-0.0500246
-0.0435846
-0.0332105
-0.0157
-0.0348277
-0.121909
-0.235589
-0.296941
-0.261412
-0.171358
-0.173498
-0.22196
-0.171629
-0.117605
-0.1137
-0.109858
-0.0758405
-0.044405
-0.0175751
-0.00479684
0.0101952
0.0196422
0.0287661
0.0355272
0.0412892
0.0459407
0.0498137
0.0530055
0.0556488
0.0578387
0.0596525
0.0611527
0.0623883
0.0633984
0.0642146
0.0648613
0.0653577
0.0657181
0.0659528
0.066069
-0.0639224
-0.0640772
-0.0643849
-0.064843
-0.0654476
-0.0661928
-0.0670709
-0.0680699
-0.0691744
-0.070364
-0.0716127
-0.0728853
-0.0741388
-0.0753225
-0.076371
-0.0772459
-0.0778123
-0.0783388
-0.0783113
-0.0790497
-0.079088
-0.0846772
-0.0940271
-0.0995161
-0.160074
-0.293638
-0.40389
-0.46223
-0.366262
-0.179298
-0.109175
-0.092168
-0.0892314
-0.0772987
-0.081946
-0.0762089
-0.0525145
-0.0276099
-0.00655771
0.0027255
0.0151888
0.0226008
0.0304276
0.0361065
0.041147
0.0452464
0.0487182
0.0516052
0.0540255
0.0560513
0.0577446
0.0591567
0.0603281
0.0612923
0.0620759
0.0626999
0.0631809
0.0635312
0.0637599
0.0638733
-0.0647103
-0.064874
-0.0652005
-0.0656887
-0.0663374
-0.0671445
-0.0681075
-0.0692216
-0.0704825
-0.0718844
-0.0734219
-0.0750875
-0.0768782
-0.0787971
-0.0808621
-0.0831345
-0.0856467
-0.0888777
-0.0926395
-0.0985552
-0.105834
-0.120103
-0.142074
-0.161643
-0.237351
-0.373296
-0.481954
-0.553694
-0.418122
-0.173247
-0.0667757
0.022391
0.0381174
-0.0337726
-0.0492307
-0.0376526
-0.0245789
-0.00731616
0.00692842
0.0124903
0.0219367
0.0270747
0.0333284
0.0377061
0.0418468
0.0452417
0.0481933
0.0506805
0.0527993
0.0545977
0.0561194
0.057402
0.058476
0.0593673
0.0600969
0.0606814
0.0611342
0.0614653
0.0616821
0.0617897
-0.0653359
-0.0655093
-0.0658557
-0.0663759
-0.0670714
-0.0679441
-0.0689967
-0.0702324
-0.0716575
-0.0732804
-0.0751149
-0.0771795
-0.0795076
-0.0821472
-0.085187
-0.0887579
-0.0930206
-0.0985638
-0.105415
-0.115218
-0.127585
-0.146781
-0.174962
-0.199848
-0.271585
-0.386519
-0.476226
-0.546538
-0.412285
-0.131372
-0.024793
-0.0302394
-0.0462355
-0.0370899
-0.00776517
0.00295478
0.00503623
0.0141613
0.0214166
0.0233854
0.0296322
0.0324668
0.03702
0.0400078
0.0431562
0.0457589
0.0481099
0.0501324
0.0518971
0.0534222
0.0547342
0.0558561
0.056807
0.0576045
0.058263
0.0587945
0.0592088
0.0595132
0.0597131
0.0598126
-0.0657894
-0.0659721
-0.0663379
-0.0668892
-0.0676302
-0.0685663
-0.0697055
-0.0710584
-0.0726407
-0.0744731
-0.0765862
-0.0790198
-0.0818374
-0.0851175
-0.0890041
-0.0936646
-0.0993444
-0.106643
-0.115721
-0.128031
-0.143454
-0.164503
-0.19454
-0.218907
-0.277632
-0.364577
-0.420827
-0.461439
-0.357979
-0.155657
-0.0432273
-0.125347
-0.177594
-0.0429503
0.0315098
0.0411305
0.0332672
0.0346146
0.0355146
0.0343408
0.037508
0.0381954
0.0410571
0.0426779
0.0448205
0.0466072
0.0483276
0.0498531
0.0512353
0.0524615
0.0535401
0.0544809
0.0552914
0.0559805
0.0565559
0.0570247
0.0573928
0.0576649
0.0578444
0.0579339
-0.0660609
-0.0662518
-0.0666348
-0.0672137
-0.0679949
-0.0689869
-0.0702025
-0.0716582
-0.0733776
-0.0753909
-0.0777422
-0.0804864
-0.0837087
-0.0875039
-0.092055
-0.097534
-0.104239
-0.1127
-0.123176
-0.136778
-0.153667
-0.174507
-0.204133
-0.225198
-0.269849
-0.331652
-0.352078
-0.370184
-0.363987
-0.159075
-0.058742
-0.107989
-0.0764631
0.0677613
0.0677617
0.0717628
0.0571847
0.0522533
0.0480687
0.0444439
0.0449022
0.0437472
0.0450441
0.0454116
0.0465988
0.047598
0.0487009
0.0497335
0.050728
0.0516479
0.0524848
0.0532352
0.0538965
0.0544693
0.0549548
0.055355
0.0556722
0.0559084
0.056065
0.0561434
-0.0661419
-0.0663392
-0.0667356
-0.0673361