/*--------------------------------*- C++ -*----------------------------------*\
  =========                 |
  \\      /  F ield         | OpenFOAM: The Open Source CFD Toolbox
   \\    /   O peration     | Website:  https://openfoam.org
    \\  /    A nd           | Version:  12
     \\/     M anipulation  |
\*---------------------------------------------------------------------------*/
FoamFile
{
    format      ascii;
    class       surfaceScalarField;
    location    "400";
    object      phi;
}
// * * * * * * * * * * * * * * * * * * * * * * * * * * * * * * * * * * * * * //

dimensions      [0 3 -1 0 0 0 0];

internalField   nonuniform List<scalar> 
32440
(
-6.9197e-07
0.0399887
6.17339e-07
0.0399887
-2.07287e-06
0.0399907
-7.61958e-07
0.0399887
-3.44876e-06
0.0399907
-2.13306e-06
0.0399987
-2.81335e-06
0.0400107
-3.48833e-06
0.0400107
-2.15483e-06
0.0400107
-8.10309e-07
0.0400107
5.48598e-07
0.0400106
-4.07492e-06
0.0400046
-4.67889e-06
0.0400006
-5.25694e-06
0.0400006
-5.80428e-06
0.0400005
-6.3155e-06
0.0400005
-6.785e-06
0.0400005
-7.20702e-06
0.0400004
-7.57585e-06
0.0400004
-7.88592e-06
0.0400003
-8.132e-06
0.0400002
-8.30975e-06
0.0400002
-8.41537e-06
0.0400001
-8.44636e-06
0.04
-8.40138e-06
0.04
-8.2804e-06
0.0399999
-8.08494e-06
0.0399998
-7.81675e-06
0.0399997
-9.08252e-06
0.0400013
-1.43474e-05
0.0400053
-1.54369e-05
0.0400011
-1.51391e-05
0.0399997
-1.46028e-05
0.0399995
-1.40369e-05
0.0399994
-1.24502e-05
0.0399984
-1.18516e-05
0.0399994
-1.12495e-05
0.0399994
-1.06516e-05
0.0399994
-1.0065e-05
0.0399994
-9.49584e-06
0.0399994
-8.94927e-06
0.0399995
-8.4295e-06
0.0399995
-7.93975e-06
0.0399995
-7.48231e-06
0.0399995
-7.05861e-06
0.0399996
-6.66929e-06
0.0399996
-6.31426e-06
0.0399996
-5.99293e-06
0.0399997
-5.70377e-06
0.0399997
-5.44525e-06
0.0399997
-5.21535e-06
0.0399998
-7.01175e-06
0.0400018
-1.2832e-05
0.0400058
-6.67342e-06
0.0400058
-2.53299e-06
0.0400079
-2.40784e-06
0.0400099
-2.95053e-07
0.0399979
-1.91523e-07
0.0399879
-9.41396e-08
0.0399899
0.0399879
-2.3497e-06
0.039991
-4.69762e-06
0.039991
-7.04318e-06
0.039993
-9.38469e-06
0.039991
-9.71944e-06
0.039991
-1.00451e-05
0.039999
-1.03575e-05
0.040011
-1.26508e-05
0.040013
-1.29164e-05
0.0400109
-1.11469e-05
0.0400089
-9.32555e-06
0.0400088
-1.94407e-05
0.0400147
-2.54893e-05
0.0400067
-2.74483e-05
0.0400025
-2.93028e-05
0.0400024
-3.1032e-05
0.0400022
-3.2616e-05
0.0400021
-3.40345e-05
0.0400018
-3.5267e-05
0.0400016
-3.62937e-05
0.0400013
-3.70934e-05
0.040001
-3.76557e-05
0.0400007
-3.79647e-05
0.0400004
-3.80113e-05
0.0400001
-3.77907e-05
0.0399997
-3.71029e-05
0.0399992
-3.63532e-05
0.0399991
-3.57537e-05
0.0399991
-3.59174e-05
0.0400014
-4.01727e-05
0.0400095
-4.00243e-05
0.0400009
-3.82229e-05
0.0399979
-3.62913e-05
0.0399975
-3.4262e-05
0.0399974
-3.33675e-05
0.0399975
-3.12416e-05
0.0399973
-2.91116e-05
0.0399973
-2.70074e-05
0.0399973
-2.49544e-05
0.0399974
-2.29748e-05
0.0399975
-2.10869e-05
0.0399976
-1.93057e-05
0.0399977
-1.76423e-05
0.0399978
-1.6105e-05
0.039998
-1.26971e-05
0.0399962
-1.14206e-05
0.0399983
-1.02744e-05
0.0399985
-9.25528e-06
0.0399987
-8.35834e-06
0.0399988
-7.5768e-06
0.039999
-8.90218e-06
0.0400011
-1.23259e-05
0.0400052
-1.38383e-05
0.0400073
-1.14287e-05
0.0400034
-9.08661e-06
0.0400055
-6.80111e-06
0.0400076
-5.61041e-07
0.0399916
-2.355e-06
0.0399897
-1.71699e-07
0.0399877
0.0399877
-4.06007e-06
0.0399951
-8.11731e-06
0.0399951
-1.01708e-05
0.0399951
-1.42185e-05
0.0399951
-2.02562e-05
0.0399971
-1.82765e-05
0.039997
-2.22792e-05
0.040015
-2.42465e-05
0.0400149
-2.6172e-05
0.0400129
-2.80329e-05
0.0400107
-2.98172e-05
0.0400106
-4.14813e-05
0.0400264
-4.70364e-05
0.0400122
-5.04443e-05
0.0400059
-5.36636e-05
0.0400056
-5.66693e-05
0.0400052
-5.94231e-05
0.0400048
-6.18894e-05
0.0400043
-6.00312e-05
0.0399997
-6.58128e-05
0.0400071
-6.72002e-05
0.0400024
-6.81669e-05
0.0400017
-6.86882e-05
0.0400009
-6.87468e-05
0.0400001
-6.83338e-05
0.0399993
-6.74487e-05
0.0399983
-6.61007e-05
0.0399977
-6.43048e-05
0.0399973
-6.36971e-05
0.0400008
-6.67968e-05
0.0400126
-6.53937e-05
0.0399995
-6.23915e-05
0.0399949
-5.89622e-05
0.0399941
-5.53641e-05
0.0399938
-5.06559e-05
0.0399928
-4.68934e-05
0.0399935
-4.3135e-05
0.0399935
-3.94315e-05
0.0399936
-3.58239e-05
0.0399938
-3.23538e-05
0.039994
-2.9054e-05
0.0399943
-2.59504e-05
0.0399946
-2.30637e-05
0.039995
-2.0404e-05
0.0399953
-1.99813e-05
0.0399957
-1.77971e-05
0.0399962
-1.58494e-05
0.0399966
-1.21306e-05
0.0399949
-1.06313e-05
0.0399973
-1.13389e-05
0.0399997
-1.2239e-05
0.040002
-2.13157e-05
0.0400143
-1.45499e-05
0.0400006
-1.19236e-05
0.0400008
-9.4179e-06
0.040003
-5.01296e-06
0.0400032
-6.88913e-07
0.0399873
-4.25494e-07
0.0399894
-2.02573e-07
0.0399875
0.0399875
-5.80133e-06
0.0400009
-1.15995e-05
0.0400009
-1.73937e-05
0.0400009
-2.3181e-05
0.0400009
-2.69558e-05
0.0400008
-3.27117e-05
0.0400028
-3.24377e-05
0.0400147
-3.61266e-05
0.0400186
-3.97507e-05
0.0400165
-4.52982e-05
0.0400163
-5.07273e-05
0.040016
-6.00032e-05
0.0400357
-6.91266e-05
0.0400213
-7.60327e-05
0.0400128
-8.06875e-05
0.0400103
-8.30265e-05
0.0400076
-8.50115e-05
0.0400068
-7.85949e-05
0.0399979
-7.57192e-05
0.0399969
-9.02818e-05
0.0400217
-9.8302e-05
0.0400105
-9.9711e-05
0.0400031
-0.000100473
0.0400017
-0.000100555
0.0400002
-9.99544e-05
0.0399987
-9.86644e-05
0.039997
-9.66975e-05
0.0399957
-9.42852e-05
0.0399949
-9.24546e-05
0.039999
-9.43636e-05
0.0400145
-9.16088e-05
0.0399968
-8.71367e-05
0.0399904
-8.19308e-05
0.0399889
-7.66818e-05
0.0399886
-7.24764e-05
0.0399886
-6.70005e-05
0.039988
-6.15346e-05
0.039988
-5.61538e-05
0.0399882
-4.89238e-05
0.0399865
-4.39013e-05
0.039989
-3.91346e-05
0.0399895
-3.46627e-05
0.0399901
-3.05089e-05
0.0399908
-2.66958e-05
0.0399915
-2.32331e-05
0.0399923
-2.01206e-05
0.039993
-1.73545e-05
0.0399938
-1.69262e-05
0.0399945
-1.28191e-05
0.0399932
-1.10144e-05
0.0399979
-1.94901e-05
0.0400105
-1.82229e-05
0.040013
-1.71852e-05
0.0399995
-1.43504e-05
0.039998
-1.16906e-05
0.0400004
-3.17694e-06
0.0399947
-2.78017e-06
0.0399869
-4.71254e-07
0.0399871
-2.20894e-07
0.0399872
0.0399873
-7.54652e-06
0.0400084
-1.50903e-05
0.0400084
-2.26311e-05
0.0400084
-3.01642e-05
0.0400084
-3.76887e-05
0.0400084
-4.31908e-05
0.0400083
-4.26603e-05
0.0400142
-5.00833e-05
0.040026
-5.74378e-05
0.0400238
-6.26934e-05
0.0400215
-6.78145e-05
0.0400212
-7.47482e-05
0.0400426
-8.94644e-05
0.040036
-9.79274e-05
0.0400213
-0.00010406
0.0400164
-0.000109804
0.0400133
-0.000109084
0.0400061
-9.98631e-05
0.0399887
-0.000109994
0.040007
-0.000123396
0.0400351
-0.000130089
0.0400171
-0.000131971
0.040005
-0.000133002
0.0400027
-0.000133142
0.0400004
-0.000132356
0.0399979
-0.000130649
0.0399953
-0.000128035
0.0399931
-0.000124544
0.0399914
-0.00012185
0.0399963
-0.000122485
0.0400152
-0.000118316
0.0399926
-0.000112073
0.0399842
-0.0001056
0.0399824
-9.8414e-05
0.0399814
-9.04219e-05
0.0399806
-8.31441e-05
0.0399808
-7.589e-05
0.0399808
-6.87569e-05
0.0399811
-6.38422e-05
0.0399816
-5.72133e-05
0.0399823
-5.0936e-05
0.0399832
-4.30602e-05
0.0399822
-3.76192e-05
0.0399854
-3.26387e-05
0.0399866
-2.8126e-05
0.0399878
-2.40866e-05
0.039989
-2.05124e-05
0.0399902
-1.73859e-05
0.0399914
-1.66885e-05
0.0399925
-2.23922e-05
0.0400036
-3.24693e-05
0.0400205
-1.88839e-05
0.0399994
-1.56024e-05
0.0399962
-1.45887e-05
0.039997
-9.80516e-06
0.0399956
-1.2137e-06
0.0399861
-7.75757e-07
0.0399865
-4.53044e-07
0.0399868
-2.07146e-07
0.039987
0.0399871
-9.29143e-06
0.0400177
-1.658e-05
0.0400157
-2.58695e-05
0.0400177
-3.5156e-05
0.0400177
-4.44347e-05
0.0400176
-5.36959e-05
0.0400175
-5.89253e-05
0.0400194
-6.21066e-05
0.0400292
-7.1217e-05
0.0400329
-8.02188e-05
0.0400305
-8.70829e-05
0.040028
-7.77524e-05
0.0400333
-0.000104082
0.0400624
-0.00012015
0.0400374
-0.000129824
0.0400261
-0.000135025
0.0400185
-0.000133683
0.0400047
-0.000135694
0.0399907
-0.0001449
0.0400162
-0.000157239
0.0400474
-0.000162677
0.0400226
-0.000165098
0.0400074
-0.000166435
0.0400041
-0.000166635
0.0400006
-0.000165658
0.039997
-0.000163517
0.0399932
-0.000160021
0.0399896
-0.000156021
0.0399874
-0.000151964
0.0399922
-0.000151252
0.0400145
-0.000145557
0.0399869
-0.000137846
0.0399765
-0.000129189
0.0399738
-0.00012053
0.0399727
-0.000112434
0.0399725
-0.00010325
0.0399716
-9.21079e-05
0.0399696
-8.31388e-05
0.0399721
-7.44571e-05
0.0399729
-6.61576e-05
0.039974
-5.83218e-05
0.0399754
-5.30009e-05
0.0399769
-4.62491e-05
0.0399786
-3.80847e-05
0.0399784
-3.25251e-05
0.0399822
-2.75654e-05
0.039984
-2.31955e-05
0.0399858
-1.93942e-05
0.0399876
-1.81323e-05
0.0399912
-2.53753e-05
0.0400108
-2.10865e-05
0.0400163
-1.72201e-05
0.0399956
-1.57337e-05
0.0399948
-1.25809e-05
0.0399938
-1.71455e-06
0.0399847
-1.08584e-06
0.0399855
-6.47683e-07
0.0399861
-3.52342e-07
0.0399865
-1.52123e-07
0.0399868
0.039987
-1.10364e-05
0.0400288
-2.2073e-05
0.0400268
-3.31138e-05
0.0400288
-4.41576e-05
0.0400287
-5.52009e-05
0.0400287
-6.62343e-05
0.0400286
-7.52432e-05
0.0400284
-7.82e-05
0.0400322
-8.70959e-05
0.0400418
-9.58814e-05
0.0400393
-0.000106515
0.0400386
-0.000112944
0.0400397
-0.00012102
0.0400704
-0.000144764
0.0400611
-0.000154073
0.0400354
-0.000156831
0.0400213
-0.000144988
0.0399929
-0.000168297
0.040014
-0.000178673
0.0400266
-0.000190019
0.0400588
-0.000196276
0.0400288
-0.000199294
0.0400104
-0.000200985
0.0400058
-0.00020127
0.0400008
-0.000200136
0.0399958
-0.000197341
0.0399904
-0.000193514
0.0399858
-0.000188102
0.039982
-0.000183008
0.0399871
-0.000180834
0.0400123
-0.000173462
0.0399795
-0.000163743
0.0399668
-0.000153549
0.0399636
-0.000142483
0.0399616
-0.000130536
0.0399606
-0.000119295
0.0399603
-0.000110133
0.0399605
-9.92115e-05
0.0399612
-8.86691e-05
0.0399624
-7.66223e-05
0.039962
-6.71621e-05
0.0399659
-5.83602e-05
0.0399681
-5.02664e-05
0.0399705
-4.49099e-05
0.039973
-3.62992e-05
0.0399736
-3.04329e-05
0.0399782
-2.52896e-05
0.0399807
-2.08417e-05
0.0399831
-2.90497e-05
0.0399995
-4.18737e-05
0.0400236
-2.12621e-05
0.0399956
-1.71611e-05
0.0399915
-1.35181e-05
0.0399911
-4.27541e-06
0.0399846
-3.37437e-06
0.0399838
-2.75844e-06
0.0399848
-2.37004e-06
0.0399857
-2.15197e-06
0.0399863
-4.72985e-08
0.0399847
0.0399869
-1.0778e-05
0.0400396
-2.55647e-05
0.0400415
-3.83595e-05
0.0400415
-4.91639e-05
0.0400395
-6.19821e-05
0.0400415
-7.48037e-05
0.0400414
-8.76111e-05
0.0400412
-9.63925e-05
0.040041
-0.000103109
0.0400486
-0.000115731
0.040052
-0.000128194
0.0400511
-0.000136474
0.040048
-0.000124455
0.0400584
-0.000157855
0.0400945
-0.000182889
0.0400604
-0.000189299
0.0400277
-0.000191015
0.0399946
-0.000201769
0.0400247
-0.000211472
0.0400363
-0.00022395
0.0400712
-0.000231101
0.040036
-0.000234814
0.0400141
-0.000236912
0.0400079
-0.000237352
0.0400013
-0.000236041
0.0399945
-0.000232956
0.0399873
-0.000228143
0.039981
-0.000221666
0.0399755
-0.000215405
0.0399809
-0.000211393
0.0400083
-0.000202209
0.0399704
-0.00019067
0.0399552
-0.00017815
0.0399511
-0.000165087
0.0399486
-0.000150703
0.0399462
-0.00013723
0.0399469
-0.000123901
0.0399472
-0.00011089
0.0399482
-9.83697e-05
0.0399499
-8.84764e-05
0.0399521
-7.53257e-05
0.0399528
-6.49936e-05
0.0399578
-5.55273e-05
0.0399611
-4.69649e-05
0.0399645
-3.93126e-05
0.0399659
-3.25547e-05
0.0399714
-2.66662e-05
0.0399748
-2.56102e-05
0.0399821
-3.33329e-05
0.0400072
-2.77873e-05
0.0400181
-2.09067e-05
0.0399888
-1.66295e-05
0.0399872
-4.88906e-06
0.0399794
-1.6144e-06
0.0399813
-7.38817e-07
0.0399829
-1.95065e-07
0.0399843
8.43416e-08
0.0399854
1.66088e-07
0.0399862
1.16387e-07
0.0399847
0.039987
-1.45222e-05
0.0400541
-2.90535e-05
0.0400561
-4.16005e-05
0.0400541
-5.81788e-05
0.0400561
-7.07787e-05
0.0400541
-8.54051e-05
0.040056
-0.000100043
0.0400559
-0.000114673
0.0400556
-0.000121245
0.0400551
-0.000133751
0.0400645
-0.000148126
0.0400655
-0.000162285
0.0400621
-0.00017015
0.0400663
-0.000191486
0.0401159
-0.000206355
0.0400753
-0.000208583
0.0400299
-0.000223985
0.04001
-0.000236341
0.0400371
-0.000245487
0.0400454
-0.000259212
0.040085
-0.000267433
0.0400442
-0.000271926
0.0400186
-0.000274539
0.0400105
-0.000275154
0.0400019
-0.000273675
0.039993
-0.000270111
0.0399837
-0.000264442
0.0399753
-0.000256941
0.039968
-0.000248765
0.0399727
-0.000243169
0.0400027
-0.000231933
0.0399591
-0.000218172
0.0399415
-0.000203087
0.039936
-0.000187562
0.0399331
-0.000172919
0.0399315
-0.000157012
0.039931
-0.000141311
0.0399315
-0.000124047
0.0399309
-0.000109413
0.0399352
-9.55745e-05
0.0399383
-8.46414e-05
0.0399418
-7.07225e-05
0.0399439
-5.98638e-05
0.0399502
-5.00887e-05
0.0399547
-4.33994e-05
0.0399593
-3.3779e-05
0.0399618
-2.91881e-05
0.0399702
-3.75669e-05
0.0399905
-5.28643e-05
0.0400225
-2.30138e-05
0.0399882
-1.79309e-05
0.0399837
-5.54732e-06
0.0399748
-3.77568e-06
0.0399776
-2.53919e-06
0.0399801
-1.75923e-06
0.0399821
-1.35739e-06
0.0399839
7.43756e-07
0.0399833
6.20513e-07
0.0399863
-1.65184e-06
0.039987
0.0399854
-1.6259e-05
0.0400703
-3.05286e-05
0.0400703
-4.88366e-05
0.0400724
-6.31797e-05
0.0400704
-8.15804e-05
0.0400725
-9.80274e-05
0.0400725
-0.000112512
0.0400704
-0.000129025
0.0400721
-0.000145531
0.0400716
-0.00015196
0.0400709
-0.000166302
0.0400798
-0.000184455
0.0400803
-0.000198312
0.0400801
-0.000203706
0.0401213
-0.000222569
0.0400942
-0.000216826
0.0400242
-0.000252045
0.0400452
-0.000268131
0.0400532
-0.000282905
0.0400602
-0.000294074
0.0400961
-0.000303488
0.0400536
-0.000310898
0.0400261
-0.00031414
0.0400137
-0.000314995
0.0400028
-0.000313417
0.0399915
-0.000309291
0.0399796
-0.000302484
0.0399685
-0.000293678
0.0399592
-0.000283981
0.039963
-0.000276339
0.039995
-0.000262598
0.0399454
-0.000246336
0.0399252
-0.000228992
0.0399186
-0.000210542
0.0399146
-0.000191147
0.0399121
-0.000172545
0.0399124
-0.000154248
0.0399132
-0.000138527
0.0399152
-0.000119623
0.0399163
-0.000103706
0.0399223
-8.89232e-05
0.0399271
-7.73566e-05
0.0399323
-6.30711e-05
0.0399359
-5.20842e-05
0.0399437
-4.23857e-05
0.0399496
-3.59413e-05
0.0399553
-3.0696e-05
0.039965
-3.45798e-05
0.0399943
-2.95224e-05
0.0400174
-1.94381e-05
0.0399782
-6.23969e-06
0.0399705
-3.82551e-06
0.0399724
-2.10634e-06
0.0399759
-9.90376e-07
0.0399789
-3.87111e-07
0.0399815
1.79259e-06
0.0399817
-3.63382e-07
0.0399854
1.23004e-06
0.0399847
6.57331e-07
0.0399876
0.039986
-1.79851e-05
0.0400883
-3.59911e-05
0.0400883
-5.20387e-05
0.0400884
-7.21603e-05
0.0400906
-8.83462e-05
0.0400887
-0.000106631
0.0400908
-0.000124993
0.0400887
-0.000143424
0.0400905
-0.000161895
0.0400901
-0.000180362
0.0400894
-0.000188743
0.0400882
-0.00020499
0.0400965
-0.000221068
0.0400962
-0.000202757
0.0401029
-0.000243554
0.040135
-0.000267909
0.0400485
-0.000289182
0.0400665
-0.000305284
0.0400693
-0.000315909
0.0400708
-0.00032276
0.040103
-0.000343557
0.0400744
-0.000352076
0.0400346
-0.000356041
0.0400177
-0.000357282
0.040004
-0.000355579
0.0399898
-0.000350929
0.0399749
-0.000343286
0.0399609
-0.000332949
0.0399489
-0.000321135
0.0399512
-0.000311189
0.0399851
-0.000295019
0.0399292
-0.000275866
0.039906
-0.000255117
0.0398979
-0.000233976
0.0398935
-0.000213284
0.0398915
-0.000191689
0.0398908
-0.000168534
0.03989
-0.00014814
0.0398948
-0.000130772
0.039899
-0.000110651
0.0399022
-9.39113e-05
0.0399103
-7.86538e-05
0.039917
-6.4931e-05
0.0399222
-5.27431e-05
0.0399315
-4.20688e-05
0.0399389
-3.68527e-05
0.0399501
-4.90108e-05
0.0399771
-5.44796e-05
0.0399998
-2.31678e-05
0.0399861
-8.95095e-06
0.0399639
-3.72332e-06
0.0399653
-1.37735e-06
0.0399701
1.93483e-07
0.0399743
3.0939e-06
0.039976
3.42738e-06
0.0399812
1.2945e-06
0.0399838
2.79145e-06
0.0399839
1.35089e-08
0.0399875
1.05333e-06
0.0399866
0.0399871
-1.96926e-05
0.040108
-3.94148e-05
0.0401081
-5.92009e-05
0.0401082
-7.70736e-05
0.0401084
-9.9071e-05
0.0401107
-0.000117186
0.0401089
-0.000139445
0.040111
-0.000157811
0.0401089
-0.000178301
0.0401106
-0.000198846
0.0401099
-0.000219392
0.0401088
-0.000229824
0.040107
-0.000248087
0.0401145
-0.000260089
0.0401149
-0.000271348
0.0401462
-0.00030595
0.0400831
-0.000325562
0.0400861
-0.000339924
0.0400836
-0.000348728
0.0400796
-0.000333629
0.0400879
-0.000371895
0.0401127
-0.000393725
0.0400564
-0.000400652
0.0400246
-0.000402361
0.0400057
-0.000400644
0.039988
-0.000395196
0.0399695
-0.000386588
0.0399523
-0.000374391
0.0399367
-0.000360565
0.0399374
-0.000347919
0.0399724
-0.000328721
0.03991
-0.000306103
0.0398834
-0.000282267
0.039874
-0.000257219
0.0398684
-0.000231255
0.0398655
-0.000206281
0.0398658
-0.000183936
0.0398677
-0.00015862
0.0398695
-0.0001366
0.0398769
-0.000118114
0.0398837
-9.73337e-05
0.0398895
-8.03362e-05
0.0399001
-6.71595e-05
0.039909
-5.18049e-05
0.0399162
-4.221e-05
0.0399293
-4.42902e-05
0.0399522
-5.99527e-05
0.0399928
-3.5128e-05
0.039975
-9.66084e-06
0.0399606
-3.41641e-06
0.0399577
-2.75167e-07
0.0399621
1.88942e-06
0.0399679
3.20105e-06
0.039973
3.77823e-06
0.0399755
3.73666e-06
0.0399812
5.18747e-06
0.0399824
4.23757e-06
0.0399849
2.99003e-06
0.0399888
1.54565e-06
0.039988
0.0399886
-2.13712e-05
0.0401294
-4.27827e-05
0.0401295
-6.42796e-05
0.0401297
-8.59e-05
0.0401301
-0.00010567
0.0401304
-0.000127629
0.0401308
-0.000149784
0.0401331
-0.000172135
0.0401312
-0.00019467
0.0401331
-0.000217354
0.0401326
-0.00023811
0.0401295
-0.000260901
0.0401298
-0.000275552
0.0401291
-0.000294086
0.0401335
-0.000282222
0.0401343
-0.000329141
0.0401301
-0.000359228
0.0401162
-0.000380077
0.0401045
-0.000395305
0.0400949
-0.000400388
0.040093
-0.000426705
0.040139
-0.000442197
0.0400719
-0.000448317
0.0400307
-0.000450665
0.040008
-0.000449033
0.0399864
-0.000443168
0.0399636
-0.000433132
0.0399422
-0.000419161
0.0399227
-0.000402584
0.0399208
-0.000386857
0.0399567
-0.000364157
0.0398873
-0.000337898
0.0398572
-0.000309676
0.0398458
-0.000280755
0.0398395
-0.000252824
0.0398376
-0.000222058
0.039835
-0.000194173
0.0398398
-0.000169607
0.0398449
-0.00014272
0.03985
-0.000119735
0.0398607
-0.000100814
0.0398706
-8.00546e-05
0.0398793
-6.34563e-05
0.0398924
-4.89818e-05
0.0399017
-4.25425e-05
0.0399229
-4.40334e-05
0.0399537
-3.53399e-05
0.0399841
-1.03399e-05
0.03995
-2.83681e-06
0.0399531
1.29862e-06
0.0399536
4.21892e-06
0.0399592
6.0712e-06
0.039966
8.99512e-06
0.0399701
7.12643e-06
0.0399773
8.59087e-06
0.0399798
5.51147e-06
0.0399855
4.00342e-06
0.0399864
4.17829e-06
0.0399886
2.14355e-06
0.03999
0.0399908
-2.30077e-05
0.0401524
-4.40576e-05
0.0401505
-6.72307e-05
0.0401529
-9.05626e-05
0.0401534
-0.0001141
0.040154
-0.000137883
0.0401546
-0.000161937
0.0401572
-0.000186274
0.0401556
-0.000210895
0.0401577
-0.000233764
0.0401555
-0.000260856
0.0401566
-0.00028607
0.040155
-0.000309281
0.0401524
-0.000324343
0.0401485
-0.000345172
0.0401552
-0.000373062
0.0401579
-0.00039814
0.0401413
-0.000419892
0.0401262
-0.000439856
0.0401148
-0.000457569
0.0401107
-0.000478332
0.0401598
-0.000491854
0.0400854
-0.000499493
0.0400384
-0.000502772
0.0400113
-0.00050129
0.0399849
-0.000494884
0.0399572
-0.000483194
0.0399305
-0.000467051
0.0399066
-0.000447676
0.0399014
-0.00042834
0.0399374
-0.000401487
0.0398605
-0.00037053
0.0398262
-0.000337863
0.0398131
-0.000304271
0.0398059
-0.000269776
0.0398031
-0.000238684
0.0398039
-0.000204843
0.0398059
-0.000174726
0.0398148
-0.000148712
0.039824
-0.000121083
0.0398331
-9.79698e-05
0.0398475
-7.74289e-05
0.0398588
-5.94451e-05
0.0398744
-4.99296e-05
0.0398922
-6.07359e-05
0.0399337
-6.37744e-05
0.0399567
-1.89239e-05
0.0399392
-3.89342e-06
0.039935
1.47185e-06
0.0399478
7.33341e-06
0.0399477
9.87632e-06
0.0399567
1.12645e-05
0.0399647
1.1657e-05
0.0399697
1.12027e-05
0.0399778
1.00415e-05
0.0399809
1.0305e-05
0.0399852
8.11733e-06
0.0399886
5.5962e-06
0.0399911
2.85603e-06
0.0399928
0.0399936
-2.45868e-05
0.040177
-4.92398e-05
0.0401752
-7.40325e-05
0.0401777
-9.90288e-05
0.0401784
-0.000124288
0.0401792
-0.000149863
0.0401802
-0.000173789
0.0401811
-0.00020011
0.0401819
-0.000224813
0.0401824
-0.000253947
0.0401846
-0.000279406
0.0401821
-0.000307145
0.0401827
-0.000335086
0.0401803
-0.000363019
0.0401765
-0.000382711
0.0401749
-0.000409859
0.0401851
-0.000436204
0.0401676
-0.000461307
0.0401513
-0.000484572
0.0401381
-0.000505388
0.0401315
-0.000527088
0.0401815
-0.000545092
0.0401034
-0.000554685
0.040048
-0.000559211
0.0400159
-0.000558154
0.0399839
-0.000551143
0.0399502
-0.000538144
0.0399175
-0.00051919
0.0398876
-0.000496371
0.0398786
-0.00047269
0.0399137
-0.000440939
0.0398287
-0.000404922
0.0397902
-0.000366736
0.039775
-0.000327702
0.0397669
-0.000287751
0.0397631
-0.000249759
0.0397659
-0.000215449
0.0397716
-0.000179423
0.0397788
-0.00014806
0.0397927
-0.00011964
0.0398047
-9.42688e-05
0.0398221
-7.1988e-05
0.0398365
-5.47056e-05
0.0398571
-5.62608e-05
0.0398937
-7.04939e-05
0.0399479
-2.93508e-05
0.0399156
-4.45888e-06
0.0399144
2.4049e-06
0.0399281
1.14298e-05
0.0399387
1.28339e-05
0.0399463
1.68131e-05
0.0399527
1.75653e-05
0.0399639
1.72622e-05
0.03997
1.80682e-05
0.039977
1.41354e-05
0.0399849
1.16037e-05
0.0399877
8.60427e-06
0.0399916
7.26117e-06
0.0399924
3.69126e-06
0.0399963
0.0399973
-2.40791e-05
0.040201
-5.22632e-05
0.0402034
-7.86072e-05
0.040204
-0.000103191
0.040203
-0.000130112
0.0402062
-0.000157422
0.0402075
-0.000185207
0.0402089
-0.000213492
0.0402102
-0.000242316
0.0402113
-0.000269681
0.0402119
-0.000301601
0.040214
-0.000331994
0.0402131
-0.00036076
0.0402091
-0.000391745
0.0402075
-0.000420768
0.0402039
-0.000445399
0.0402097
-0.000477424
0.0401996
-0.000504291
0.0401782
-0.000531391
0.0401652
-0.000554017
0.0401541
-0.000563312
0.0401908
-0.000598371
0.0401385
-0.000614474
0.0400641
-0.000620715
0.0400221
-0.000620359
0.0399835
-0.000612908
0.0399428
-0.000598128
0.0399028
-0.000576453
0.039866
-0.00054924
0.0398514
-0.00052047
0.0398849
-0.000482851
0.0397911
-0.000440489
0.0397478
-0.000395623
0.0397301
-0.000350158
0.0397214
-0.000306293
0.0397192
-0.000260702
0.0397203
-0.000219404
0.0397303
-0.000181057
0.0397404
-0.000146102
0.0397577
-0.000114771
0.0397734
-8.71542e-05
0.0397945
-6.52e-05
0.0398145
-4.87683e-05
0.0398407
-4.76141e-05
0.0398926
-2.35922e-05
0.0399239
-4.38204e-06
0.0398964
6.31016e-06
0.0399037
1.07709e-05
0.0399236
1.92198e-05
0.0399303
2.39348e-05
0.0399416
2.51455e-05
0.0399515
2.50638e-05
0.039964
2.38827e-05
0.0399712
2.17783e-05
0.0399791
2.0916e-05
0.0399857
1.74401e-05
0.0399912
1.34879e-05
0.0399955
7.18599e-06
0.0399987
4.65623e-06
0.0399989
0.040002
-2.74963e-05
0.0402285
-5.50973e-05
0.040231
-8.0889e-05
0.0402298
-0.000111005
0.0402331
-0.000137494
0.0402326
-0.000166482
0.0402365
-0.00019604
0.0402384
-0.00022624
0.0402404
-0.00025714
0.0402422
-0.000288762
0.0402436
-0.00031915
0.0402444
-0.000352259
0.0402462
-0.000385998
0.0402428
-0.000420291
0.0402417
-0.000454846
0.0402384
-0.000489405
0.0402443
-0.000515509
0.0402257
-0.000550726
0.0402134
-0.000578339
0.0401928
-0.000599655
0.0401754
-0.000583591
0.0401747
-0.000642185
0.0401971
-0.000677535
0.0400994
-0.000688115
0.0400327
-0.000688904
0.0399843
-0.000681183
0.039935
-0.000664543
0.0398861
-0.000639124
0.0398405
-0.000607176
0.0398194
-0.000572169
0.0398499
-0.000527479
0.0397464
-0.000477275
0.0396976
-0.000424862
0.0396777
-0.000371816
0.0396684
-0.000318853
0.0396663
-0.000270801
0.0396723
-0.000221901
0.0396814
-0.000180821
0.0396993
-0.000140043
0.0397169
-0.000107725
0.039741
-7.59378e-05
0.0397627
-5.64639e-05
0.039795
-6.69957e-05
0.0398512
-5.9419e-05
0.039885
-9.45798e-06
0.0398739
1.34492e-05
0.0398735
2.16244e-05
0.0398955
2.73812e-05
0.0399179
3.09926e-05
0.0399267
3.47677e-05
0.0399378
3.29756e-05
0.0399533
3.38408e-05
0.0399631
3.15805e-05
0.0399734
2.83824e-05
0.0399823
2.44173e-05
0.0399897
1.9838e-05
0.0399958
1.67848e-05
0.0399986
1.13839e-05
0.0400041
5.75644e-06
0.0400045
0.0400077
-2.87866e-05
0.0402573
-5.76987e-05
0.0402599
-8.68469e-05
0.040259
-0.000114338
0.0402606
-0.000146325
0.0402646
-0.000174868
0.040265
-0.000206116
0.0402697
-0.000238154
0.0402724
-0.000271071
0.0402751
-0.000304937
0.0402774
-0.0003398
0.0402792
-0.000373658
0.0402801
-0.000412519
0.0402817
-0.000448228
0.0402775
-0.000486642
0.0402769
-0.000525419
0.0402831
-0.000564195
0.0402645
-0.00059435
0.0402436
-0.000631236
0.0402297
-0.000663861
0.0402081
-0.000681108
0.0401919
-0.000720952
0.0402369
-0.000750669
0.0401291
-0.000762562
0.0400446
-0.000765155
0.0399869
-0.000757339
0.0399272
-0.000738651
0.0398674
-0.000709395
0.0398113
-0.000671237
0.0397813
-0.000628593
0.0398073
-0.000575189
0.039693
-0.000515762
0.0396382
-0.000454158
0.0396161
-0.000391896
0.0396061
-0.000330608
0.039605
-0.000273178
0.0396149
-0.000219976
0.0396282
-0.000171742
0.0396511
-0.000128942
0.0396741
-9.16864e-05
0.0397038
-6.38296e-05
0.0397349
-5.50449e-05
0.0397863
-6.49422e-05
0.0398611
-1.54617e-05
0.0398355
1.81742e-05
0.0398403
3.04521e-05
0.0398612
3.57587e-05
0.0398902
4.24549e-05
0.0399112
4.69076e-05
0.0399222
4.54577e-05
0.0399392
4.63878e-05
0.0399523
4.39615e-05
0.0399655
4.04031e-05
0.039977
3.59119e-05
0.0399868
3.26649e-05
0.039993
2.68161e-05
0.0400016
1.85046e-05
0.0400069
1.38595e-05
0.0400088
4.99321e-06
0.0400134
0.0400127
-2.99366e-05
0.0402873
-5.80057e-05
0.0402879
-9.03769e-05
0.0402913
-0.000121142
0.0402913
-0.000150439
0.0402939
-0.000184449
0.040299
-0.000215235
0.0403005
-0.000249008
0.0403062
-0.000281827
0.0403079
-0.000317848
0.0403135
-0.000355129
0.0403165
-0.000393787
0.0403187
-0.000433791
0.0403217
-0.00047511
0.0403188
-0.000517613
0.0403194
-0.000559025
0.0403245
-0.000602977
0.0403085
-0.000648938
0.0402895
-0.000685913
0.0402667
-0.000725053
0.0402472
-0.000758807
0.0402257
-0.000777385
0.0402555
-0.000822863
0.0401746
-0.00084532
0.040067
-0.000850671
0.0399922
-0.000843339
0.0399199
-0.000822469
0.0398466
-0.000788058
0.0397769
-0.000742728
0.0397359
-0.000690729
0.0397553
-0.000626553
0.0396288
-0.000555884
0.0395675
-0.0004825
0.0395427
-0.000409445
0.039533
-0.000340552
0.0395361
-0.000272648
0.039547
-0.000214353
0.0395699
-0.000158599
0.0395954
-0.000115646
0.0396312
-8.15163e-05
0.0396697
-5.39073e-05
0.0397073
-3.63053e-05
0.0397687
-4.24004e-06
0.0398291
2.48858e-05
0.0398064
4.17526e-05
0.0398234
4.69449e-05
0.039856
5.09623e-05
0.0398862
6.01745e-05
0.039902
6.10992e-05
0.0399213
6.20857e-05
0.0399383
5.94513e-05
0.039955
5.54698e-05
0.0399695
5.03765e-05
0.0399821
4.63861e-05
0.0399908
3.76669e-05
0.0400017
3.23783e-05
0.0400069
2.46535e-05
0.0400146
1.66146e-05
0.0400168
8.37116e-06
0.0400216
0.0400211
-3.09238e-05
0.0403182
-6.20162e-05
0.040319
-9.14007e-05
0.0403207
-0.000123264
0.0403232
-0.000157765
0.0403284
-0.000189017
0.0403303
-0.000223231
0.0403347
-0.000258561
0.0403415
-0.000295169
0.0403445
-0.000333217
0.0403515
-0.000372855
0.0403561
-0.00041421
0.0403601
-0.000455358
0.0403628
-0.00050034
0.0403638
-0.000545148
0.0403642
-0.000591665
0.040371
-0.000643271
0.0403601
-0.000693647
0.0403399
-0.000744008
0.040317
-0.000784917
0.0402881
-0.000821289
0.0402621
-0.000810717
0.0402449
-0.000889201
0.0402531
-0.000935949
0.0401138
-0.000947464
0.0400038
-0.000941335
0.0399138
-0.000917999
0.0398232
-0.000878164
0.039737
-0.000823413
0.0396812
-0.000759509
0.0396914
-0.000681831
0.0395511
-0.000596777
0.0394825
-0.000509656
0.0394556
-0.000423859
0.0394472
-0.000341288
0.0394535
-0.000265638
0.0394713
-0.000197532
0.0395018
-0.000141826
0.0395396
-0.000104705
0.0395941
-8.5889e-05
0.0396508
-7.09221e-05
0.0396923
-4.11288e-05
0.0397389
2.8141e-05
0.0397598
5.41954e-05
0.0397803
6.56548e-05
0.0398119
7.11828e-05
0.0398505
7.7339e-05
0.03988
8.0658e-05
0.0398986
8.16504e-05
0.0399203
7.87182e-05
0.0399412
7.41987e-05
0.0399595
6.83821e-05
0.0399753
6.35137e-05
0.0399869
5.38007e-05
0.0400005
4.74194e-05
0.0400081
3.65149e-05
0.0400178
2.92204e-05
0.0400219
1.76407e-05
0.0400284
9.88323e-06
0.0400294
0.040031
-3.17253e-05
0.0403499
-6.36417e-05
0.040351
-9.58925e-05
0.040353
-0.000128666
0.040356
-0.00016011
0.0403599
-0.000194451
0.0403646
-0.000229866
0.0403701
-0.000266546
0.0403782
-0.000304741
0.0403827
-0.000344628
0.0403914
-0.000384415
0.0403959
-0.000428331
0.040404
-0.000474604
0.0404091
-0.000523338
0.0404125
-0.000572663
0.0404135
-0.000618617
0.0404169
-0.000678277
0.0404197
-0.000739927
0.0404016
-0.000798584
0.0403757
-0.000857035
0.0403466
-0.00090341
0.0403084
-0.000943404
0.0402849
-0.00100069
0.0403104
-0.00104071
0.0401538
-0.00105867
0.0400217
-0.00105517
0.0399103
-0.00102965
0.0397977
-0.00098233
0.0396897
-0.000916266
0.0396151
-0.000836766
0.0396119
-0.000742034
0.0394564
-0.000639474
0.0393799
-0.000534907
0.039351
-0.000433211
0.0393456
-0.000337248
0.0393576
-0.000252327
0.0393864
-0.000177459
0.039427
-0.000127488
0.0394897
-8.65036e-05
0.0395531
-3.99581e-05
0.0396043
-1.84622e-05
0.0396708
3.05933e-05
0.0396898
7.06384e-05
0.0397198
8.88876e-05
0.0397621
9.42261e-05
0.0398066
9.5457e-05
0.0398492
0.000103123
0.0398723
0.000104005
0.0398978
0.000100617
0.0399237
9.53696e-05
0.0399464
9.06243e-05
0.0399642
8.26751e-05
0.0399833
7.37803e-05
0.0399958
6.41286e-05
0.0400101
5.38911e-05
0.0400183
4.52069e-05
0.0400265
3.21847e-05
0.0400349
2.2931e-05
0.0400377
1.15237e-05
0.0400408
0.0400425
-3.23202e-05
0.0403822
-6.48526e-05
0.0403835
-9.77514e-05
0.0403859
-0.000129186
0.0403874
-0.000163398
0.0403941
-0.000198575
0.0403998
-0.000236966
0.0404085
-0.000272747
0.040414
-0.00031224
0.0404222
-0.000351682
0.0404308
-0.000397426
0.0404417
-0.00044169
0.0404483
-0.000490817
0.0404582
-0.000543138
0.0404648
-0.000598832
0.0404692
-0.000654094
0.0404722
-0.000718626
0.0404843
-0.000784343
0.0404673
-0.000852749
0.0404441
-0.000922442
0.0404163
-0.00099148
0.0403775
-0.00104707
0.0403405
-0.00109876
0.0403621
-0.00115925
0.0402143
-0.0011866
0.040049
-0.0011869
0.0399106
-0.00115949
0.0397703
-0.00110343
0.0396337
-0.00102078
0.0395325
-0.000920653
0.0395117
-0.000806032
0.0393418
-0.000680814
0.0392547
-0.000555176
0.0392254
-0.000434967
0.0392253
-0.000325192
0.0392478
-0.000225832
0.039287
-0.000157276
0.0393584
-0.000103255
0.0394357
-4.12803e-05
0.0394911
1.61069e-05
0.0395469
5.8788e-05
0.0396281
9.41799e-05
0.0396544
0.000113947
0.0397
0.000125406
0.0397506
0.000129703
0.0398023
0.000133751
0.0398452
0.000134349
0.0398717