/*--------------------------------*- C++ -*----------------------------------*\
  =========                 |
  \\      /  F ield         | OpenFOAM: The Open Source CFD Toolbox
   \\    /   O peration     | Website:  https://openfoam.org
    \\  /    A nd           | Version:  12
     \\/     M anipulation  |
\*---------------------------------------------------------------------------*/
FoamFile
{
    format      ascii;
    class       volVectorField;
    location    "400";
    object      U;
}
// * * * * * * * * * * * * * * * * * * * * * * * * * * * * * * * * * * * * * //

dimensions      [0 1 -1 0 0 0 0];

internalField   nonuniform List<vector> 
16227
(
(2 -1.5565e-05 -3.75257e-23)
(2 -4.66481e-05 3.806e-23)
(2 -7.76773e-05 -3.80603e-23)
(2 -0.000108675 -3.92163e-23)
(2 -0.000139604 3.92167e-23)
(2 -0.000170415 4.11302e-23)
(2 -0.000201077 1.24888e-24)
(2 -0.000231518 -8.61756e-23)
(2 -0.000261639 1.34668e-22)
(2 -0.000291315 -9.08622e-23)
(2 -0.000320405 0)
(2 -0.000348762 1.00432e-22)
(2 -0.000376232 0)
(2 -0.000402647 0)
(2 -0.000427736 0)
(2 -0.000451263 0)
(2 -0.000472969 0)
(2 -0.000492586 0)
(2 -0.00050984 0)
(2 -0.000524464 0)
(2 -0.000536204 -1.54984e-22)
(2 -0.000544836 -6.78342e-24)
(2 -0.000550166 1.61767e-22)
(2 -0.000552048 0)
(2 -0.000550389 -1.82351e-22)
(2 -0.000545163 1.82352e-22)
(2 -0.000536412 0)
(2 -0.000524221 9.96009e-23)
(2 -0.000508798 0)
(2 -0.000490417 0)
(2 -0.000469364 0)
(2 -0.000446014 0)
(2 -0.000420733 0)
(2 -0.000393975 2.36386e-22)
(2 -0.000366175 4.56952e-24)
(2 -0.000337777 -2.40962e-22)
(2 -0.000309197 0)
(2 -0.000280837 2.52548e-22)
(2 -0.000253058 3.16048e-24)
(2 -0.000226181 -2.55712e-22)
(2 -0.000200478 0)
(2 -0.000176174 0)
(2 -0.000153441 0)
(2 -0.000132406 0)
(2 -0.000113147 0)
(2 -9.57023e-05 0)
(2 -8.00706e-05 0)
(2 -6.62226e-05 0)
(2 -5.40943e-05 0)
(2 -4.35981e-05 0)
(2 -3.46339e-05 0)
(2 -2.70826e-05 0)
(2 -2.08166e-05 0)
(2 -1.56962e-05 0)
(2 -1.15751e-05 -1.36925e-22)
(2 -8.30336e-06 1.36931e-22)
(2 -5.73103e-06 0)
(2 -3.70441e-06 0)
(2 -2.06718e-06 0)
(2 -6.61994e-07 1.36858e-22)
(2.00007 -5.58459e-05 3.84844e-25)
(2.00007 -0.00016739 0)
(2.00007 -0.000278784 0)
(2.00007 -0.000390089 0)
(2.00007 -0.000501124 -6.64459e-23)
(2.00007 -0.00061179 0)
(2.00007 -0.000721918 0)
(2.00007 -0.000831283 -2.19915e-22)
(2.00007 -0.000939525 1.47648e-22)
(2.00007 -0.00104625 -3.18568e-22)
(2.00007 -0.0011509 1.30675e-21)
(2.00006 -0.0012529 -8.42436e-22)
(2.00006 -0.00135178 4.3506e-22)
(2.00006 -0.00144685 0)
(2.00006 -0.0015372 0)
(2.00005 -0.00162196 0)
(2.00005 -0.00170016 0)
(2.00004 -0.00177084 0)
(2.00004 -0.00183298 0)
(2.00003 -0.00188561 0)
(2.00002 -0.00192776 0)
(2.00002 -0.00195862 0)
(2.00001 -0.00197751 0)
(2 -0.00198385 0)
(1.99999 -0.00197729 0)
(1.99998 -0.00195772 -3.19769e-22)
(1.99998 -0.0019253 3.19776e-22)
(1.99997 -0.00188038 -1.68323e-22)
(1.99996 -0.00182366 0)
(1.99995 -0.00175609 0)
(1.99995 -0.0016788 0)
(1.99994 -0.00159315 0)
(1.99994 -0.00150056 0)
(1.99994 -0.00140265 0)
(1.99993 -0.00130103 0)
(1.99993 -0.00119735 -4.14857e-22)
(1.99993 -0.00109314 -6.52125e-24)
(1.99993 -0.000989867 -5.91858e-24)
(1.99994 -0.000888868 -5.32868e-24)
(1.99994 -0.000791319 4.32705e-22)
(1.99994 -0.00069822 4.41695e-22)
(1.99995 -0.000610384 -4.41712e-22)
(1.99995 -0.000528441 0)
(1.99995 -0.000452844 0)
(1.99996 -0.000383871 0)
(1.99996 -0.000321637 0)
(1.99997 -0.000266133 0)
(1.99997 -0.000217229 0)
(1.99997 -0.000174688 0)
(1.99998 -0.000138184 0)
(1.99998 -0.000107333 4.61643e-22)
(1.99998 -8.16859e-05 -9.23589e-22)
(1.99999 -6.07678e-05 -9.24992e-22)
(1.99999 -4.40636e-05 9.25042e-22)
(1.99999 -3.10236e-05 -9.26154e-22)
(1.99999 -2.11042e-05 1.3894e-21)
(2 -1.37512e-05 -4.6345e-22)
(2 -8.39634e-06 2.31865e-22)
(2 -4.46841e-06 -2.31865e-22)
(2 -1.39869e-06 1.67656e-26)
(2.00022 -9.86212e-05 6.29713e-23)
(2.00022 -0.000295657 0)
(2.00022 -0.000492474 0)
(2.00022 -0.000689167 0)
(2.00022 -0.000885444 6.64317e-23)
(2.00022 -0.0010811 -1.37532e-22)
(2.00022 -0.00127591 -4.23254e-24)
(2.00021 -0.00146943 2.13944e-22)
(2.00021 -0.00166109 7.41552e-23)
(2.00021 -0.00185019 3.16464e-22)
(2.0002 -0.00203585 -3.10372e-22)
(2.0002 -0.00221683 -6.67705e-22)
(2.00019 -0.00239243 8.70522e-23)
(2.00018 -0.0025615 0)
(2.00017 -0.00272229 9.62283e-23)
(2.00016 -0.00287331 0)
(2.00015 -0.00301286 0)
(2.00013 -0.00313916 0)
(2.00011 -0.00325039 -4.77441e-22)
(2.00009 -0.00334481 4.77377e-22)
(2.00007 -0.00342058 -2.61274e-22)
(2.00005 -0.00347631 2.61271e-22)
(2.00003 -0.00351072 0)
(2 -0.00352271 -2.9642e-22)
(1.99997 -0.00351165 -1.17568e-23)
(1.99995 -0.0034773 3.08194e-22)
(1.99992 -0.0034199 0)
(1.9999 -0.00334011 0)
(1.99988 -0.00323914 0)
(1.99986 -0.00311866 0)
(1.99984 -0.00298071 1.89032e-22)
(1.99982 -0.00282775 -3.73888e-22)
(1.99981 -0.00266237 0)
(1.9998 -0.00248747 0)
(1.9998 -0.00230595 4.08543e-22)
(1.99979 -0.00212078 -4.08582e-22)
(1.9998 -0.00193473 0)
(1.9998 -0.00175043 0)
(1.9998 -0.0015703 0)
(1.99981 -0.00139643 0)
(1.99982 -0.00123061 0)
(1.99983 -0.0010743 0)
(1.99984 -0.000928608 -2.24256e-22)
(1.99986 -0.000794344 0)
(1.99987 -0.000671974 0)
(1.99988 -0.000561697 0)
(1.9999 -0.000463492 -2.29134e-22)
(1.99991 -0.000377105 4.58002e-22)
(1.99992 -0.000302088 0)
(1.99993 -0.000237856 2.3057e-22)
(1.99994 -0.000183713 0)
(1.99995 -0.000138847 4.61888e-22)
(1.99996 -0.000102409 9.25332e-22)
(1.99997 -7.34635e-05 2.32089e-22)
(1.99998 -5.10327e-05 -9.26054e-22)
(1.99998 -3.41565e-05 4.63401e-22)
(1.99999 -2.1838e-05 -4.63631e-22)
(1.99999 -1.30651e-05 0)
(1.99999 -6.82485e-06 0)
(1.99999 -2.11486e-06 -2.31114e-22)
(2.00046 -0.000142153 0)
(2.00046 -0.000426247 0)
(2.00046 -0.000710083 -6.23762e-23)
(2.00046 -0.000993812 0)
(2.00046 -0.00127702 -6.60801e-23)
(2.00045 -0.00155949 6.60711e-23)
(2.00045 -0.00184086 0)
(2.00045 -0.00212056 -2.19105e-22)
(2.00044 -0.00239777 2.15456e-22)
(2.00044 -0.00267155 0)
(2.00043 -0.00294073 -3.2653e-22)
(2.00042 -0.00320328 -9.98413e-22)
(2.0004 -0.00345842 -1.75239e-22)
(2.00038 -0.00370437 0)
(2.00036 -0.00393862 -9.61613e-23)
(2.00034 -0.00415894 0)
(2.00031 -0.00436286 0)
(2.00028 -0.00454782 9.07025e-22)
(2.00024 -0.00471118 -9.07195e-22)
(2.0002 -0.00485003 0)
(2.00015 -0.00496182 -2.60565e-22)
(2.00011 -0.00504456 -1.18014e-23)
(2.00005 -0.00509615 -1.19323e-23)
(2 -0.00511492 2.84301e-22)
(1.99995 -0.0050999 0)
(1.99989 -0.0050507 0)
(1.99984 -0.0049676 0)
(1.99979 -0.00485157 1.71596e-22)
(1.99974 -0.00470432 3.15096e-24)
(1.9997 -0.00452832 1.82351e-22)
(1.99966 -0.00432661 2.273e-24)
(1.99963 -0.00410282 0)
(1.9996 -0.00386082 0)
(1.99959 -0.00360488 0)
(1.99957 -0.00333933 -4.10039e-22)
(1.99957 -0.0030685 -7.13987e-24)
(1.99957 -0.00279657 -6.49607e-24)
(1.99958 -0.00252743 -5.86055e-24)
(1.99959 -0.00226462 8.64772e-22)
(1.99961 -0.00201117 -4.35057e-22)
(1.99963 -0.00176971 0)
(1.99965 -0.00154238 -2.23364e-22)
(1.99967 -0.00133078 2.2424e-22)
(1.9997 -0.00113602 0)
(1.99973 -0.000958774 0)
(1.99976 -0.000799322 0)
(1.99979 -0.000657561 -2.28843e-22)
(1.99981 -0.00053309 0)
(1.99984 -0.000425237 0)
(1.99986 -0.000333119 -4.61485e-22)
(1.99988 -0.000255692 -9.2445e-22)
(1.99991 -0.000191743 1.84926e-21)
(1.99992 -0.000140061 -9.25404e-22)
(1.99994 -9.92255e-05 -1.15809e-21)
(1.99995 -6.78503e-05 9.26564e-22)
(1.99997 -4.45273e-05 0)
(1.99998 -2.77966e-05 0)
(1.99998 -1.61884e-05 2.31986e-22)
(1.99999 -8.24299e-06 0)
(1.99999 -2.5102e-06 0)
(2.00079 -0.000185772 0)
(2.00079 -0.000557147 0)
(2.00079 -0.000928263 1.39489e-24)
(2.00079 -0.00129935 0)
(2.00078 -0.00166993 0)
(2.00078 -0.00203977 -1.31488e-22)
(2.00078 -0.0024084 -2.08324e-22)
(2.00077 -0.00277518 2.04388e-22)
(2.00076 -0.00313906 0)
(2.00075 -0.00349884 0)
(2.00074 -0.00385314 -3.21798e-22)
(2.00072 -0.00419911 1.98215e-21)
(2.00069 -0.00453595 -1.71348e-22)
(2.00066 -0.00486103 1.76361e-22)
(2.00063 -0.00517128 0)
(2.00059 -0.00546365 0)
(2.00054 -0.00573477 4.2878e-22)
(2.00048 -0.0059814 1.34722e-21)
(2.00042 -0.00619992 -6.70989e-22)
(2.00035 -0.00638567 0)
(2.00027 -0.00653585 0)
(2.00018 -0.00664778 0)
(2.0001 -0.0067182 0)
(2 -0.00674489 -2.96176e-22)
(1.99991 -0.00672639 -1.22409e-23)
(1.99982 -0.00666209 -1.21279e-23)
(1.99972 -0.00655229 3.20618e-22)
(1.99964 -0.00639825 1.69602e-22)
(1.99955 -0.00620225 3.11138e-24)
(1.99948 -0.00596756 -1.77669e-22)
(1.99941 -0.00569837 5.63097e-22)
(1.99936 -0.00539959 -3.76797e-22)
(1.99931 -0.00507653 -3.95764e-22)
(1.99928 -0.00473496 3.95836e-22)
(1.99926 -0.00438081 4.12235e-22)
(1.99925 -0.0040199 -4.12314e-22)
(1.99925 -0.0036579 0)
(1.99927 -0.00330003 0)
(1.99929 -0.0029511 -4.37122e-22)
(1.99932 -0.00261512 4.37166e-22)
(1.99935 -0.00229562 4.45735e-22)
(1.99939 -0.00199535 -2.22461e-22)
(1.99944 -0.00171644 0)
(1.99949 -0.00146023 0)
(1.99953 -0.00122763 0)
(1.99958 -0.00101889 0)
(1.99963 -0.000833808 0)
(1.99968 -0.000671798 0)
(1.99972 -0.000531898 -2.31023e-22)
(1.99976 -0.000412876 -1.15646e-21)
(1.9998 -0.000313299 9.24226e-22)
(1.99984 -0.000231576 9.26086e-22)
(1.99987 -0.000166035 -1.3901e-21)
(1.9999 -0.000114764 9.27276e-22)
(1.99992 -7.59637e-05 -9.27326e-22)
(1.99994 -4.77451e-05 0)
(1.99996 -2.81702e-05 0)
(1.99997 -1.53133e-05 6.42471e-26)
(1.99998 -7.25847e-06 0)
(1.99998 -2.10063e-06 0)
(2.0012 -0.00022938 -5.80766e-23)
(2.0012 -0.000688034 0)
(2.0012 -0.00114649 2.86362e-25)
(2.0012 -0.00160508 6.06542e-23)
(2.0012 -0.00206334 0)
(2.00119 -0.00252102 1.70947e-24)
(2.00119 -0.00297759 -1.34347e-22)
(2.00118 -0.00343231 1.34297e-22)
(2.00117 -0.00388404 0)
(2.00115 -0.0043313 0)
(2.00113 -0.00477257 1.52506e-22)
(2.0011 -0.00520427 6.38922e-22)
(2.00107 -0.00562512 -3.41322e-22)
(2.00102 -0.00603204 1.76142e-22)
(2.00097 -0.00642141 0)
(2.0009 -0.00678917 -2.01664e-22)
(2.00083 -0.00713105 2.01707e-22)
(2.00074 -0.00744315 1.85722e-23)
(2.00065 -0.00772031 -1.00834e-21)
(2.00054 -0.00795641 -2.46193e-22)
(2.00042 -0.00814827 2.39433e-22)
(2.00029 -0.00829214 -1.23946e-23)
(2.00015 -0.00838357 2.70883e-22)
(2.00001 -0.00841967 0)
(1.99986 -0.00839832 0)
(1.99972 -0.00831858 0)
(1.99958 -0.00818076 0)
(1.99944 -0.0079864 -1.69493e-22)
(1.99931 -0.00773838 0)
(1.99919 -0.00744086 0)
(1.99909 -0.00709932 5.67896e-22)
(1.99901 -0.00672019 -3.79094e-22)
(1.99894 -0.00631026 0)
(1.99889 -0.00587714 0)
(1.99886 -0.00542847 0)
(1.99884 -0.00497179 0)
(1.99885 -0.00451445 4.28892e-22)
(1.99887 -0.00406308 5.73572e-24)
(1.9989 -0.0036238 -6.54425e-22)
(1.99895 -0.00320178 0)
(1.999 -0.00280136 0)
(1.99907 -0.002426 4.51548e-22)
(1.99914 -0.00207822 -6.78801e-22)
(1.99921 -0.00175972 0)
(1.99929 -0.00147143 0)
(1.99936 -0.00121357 0)
(1.99944 -0.000985758 0)
(1.99951 -0.000787161 0)
(1.99958 -0.000616458 6.93919e-22)
(1.99964 -0.000472019 1.85244e-21)
(1.9997 -0.000351932 -1.85204e-21)
(1.99976 -0.00025425 9.27647e-22)
(1.99981 -0.000176715 -4.64061e-22)
(1.99985 -0.000116983 0)
(1.99989 -7.27844e-05 2.32192e-22)
(1.99992 -4.1706e-05 0)
(1.99994 -2.13312e-05 0)
(1.99996 -9.28608e-06 -2.32084e-22)
(1.99997 -3.18268e-06 0)
(1.99998 -6.59083e-07 2.31308e-22)
(2.00171 -0.000272984 2.03748e-24)
(2.0017 -0.000818937 0)
(2.0017 -0.00136481 0)
(2.0017 -0.0019111 -5.81387e-23)
(2.0017 -0.0024574 0)
(2.0017 -0.00300346 6.31027e-23)
(2.00169 -0.00354881 -6.52812e-23)
(2.00168 -0.00409254 1.30581e-22)
(2.00166 -0.00463356 0)
(2.00164 -0.00517003 -2.94679e-22)
(2.00161 -0.00570041 1.42208e-22)
(2.00157 -0.00622088 8.96057e-24)
(2.00152 -0.0067286 6.62626e-22)
(2.00146 -0.00722091 -3.5495e-22)
(2.00139 -0.00769319 -9.56868e-24)
(2.0013 -0.0081405 -1.13039e-22)
(2.00119 -0.0085577 2.07475e-21)
(2.00107 -0.00893991 -7.93191e-22)
(2.00093 -0.00928017 -1.46123e-21)
(2.00078 -0.00957112 2.11679e-21)
(2.0006 -0.00980895 2.42937e-22)
(2.00042 -0.00998842 -2.69894e-22)
(2.00022 -0.0101037 -1.29942e-23)
(2.00002 -0.0101512 2.82922e-22)
(1.99981 -0.0101278 0)
(1.9996 -0.0100323 0)
(1.99939 -0.00986479 0)
(1.99919 -0.00962714 0)
(1.99901 -0.00932286 1.77412e-22)
(1.99884 -0.00895715 0)
(1.99869 -0.00853699 -5.64238e-22)
(1.99857 -0.00807049 0)
(1.99847 -0.00756629 4.01784e-22)
(1.9984 -0.00703397 -4.01903e-22)
(1.99835 -0.0064832 4.18687e-22)
(1.99834 -0.00592353 7.16286e-24)
(1.99834 -0.00536412 -8.58569e-22)
(1.99837 -0.0048132 4.32568e-22)
(1.99843 -0.00427834 -2.23629e-22)
(1.99849 -0.00376594 4.43347e-22)
(1.99858 -0.00328115 2.25753e-22)
(1.99867 -0.00282812 0)
(1.99877 -0.00240976 2.27239e-22)
(1.99888 -0.002028 0)
(1.99899 -0.00168376 0)
(1.9991 -0.00137715 2.31312e-22)
(1.99921 -0.00110749 -2.31799e-22)
(1.99931 -0.000873626 0)
(1.99941 -0.000673744 2.78517e-21)
(1.9995 -0.000505738 1.8568e-21)
(1.99959 -0.000367306 -3.71269e-21)
(1.99966 -0.00025595 -9.29123e-22)
(1.99973 -0.000168778 2.09085e-21)
(1.9998 -0.00010305 -9.29391e-22)
(1.99985 -5.59238e-05 -2.32254e-22)
(1.99989 -2.44596e-05 0)
(1.99993 -5.77994e-06 4.64479e-22)
(1.99995 2.95777e-06 -2.32204e-22)
(1.99997 4.6218e-06 0)
(1.99998 2.02603e-06 2.67638e-26)
(2.00229 -0.000316555 5.60153e-23)
(2.00229 -0.000949803 0)
(2.00229 -0.00158319 0)
(2.00229 -0.00221737 5.61893e-23)
(2.00229 -0.00285211 -1.47842e-24)
(2.00229 -0.00348719 5.91121e-23)
(2.00228 -0.00412225 -6.06229e-23)
(2.00226 -0.00475632 -1.96333e-22)
(2.00225 -0.0053883 1.30992e-22)
(2.00222 -0.00601616 -2.85933e-22)
(2.00218 -0.00663811 -8.59742e-23)
(2.00213 -0.00725059 4.5105e-22)
(2.00207 -0.0078492 -1.30923e-21)
(2.00199 -0.00843083 -7.00078e-22)
(2.00189 -0.00899079 7.00095e-22)
(2.00177 -0.00952285 -9.5806e-23)
(2.00163 -0.0100212 2.4159e-21)
(2.00146 -0.010479 -3.8923e-22)
(2.00128 -0.0108882 -4.50853e-22)
(2.00107 -0.0112398 -1.4356e-21)
(2.00084 -0.0115289 2.45824e-22)
(2.00058 -0.0117486 0)
(2.00031 -0.0118916 0)
(2.00003 -0.011953 -2.95929e-22)
(1.99975 -0.0119288 -1.3639e-23)
(1.99946 -0.0118171 3.09679e-22)
(1.99917 -0.0116179 0)
(1.9989 -0.0113332 3.49568e-22)
(1.99864 -0.0109674 -5.26877e-22)
(1.99841 -0.0105267 0)
(1.9982 -0.0100199 1.92377e-22)
(1.99803 -0.00945709 -7.81618e-22)
(1.9979 -0.00884916 -9.69283e-24)
(1.9978 -0.00820801 8.20953e-22)
(1.99775 -0.00754571 8.01194e-24)
(1.99772 -0.00687397 -4.23218e-22)
(1.99774 -0.00620413 0)
(1.99778 -0.00554627 4.4248e-22)
(1.99785 -0.00490947 4.74202e-24)
(1.99795 -0.00430143 -4.47455e-22)
(1.99807 -0.00372815 -4.53575e-22)
(1.9982 -0.00319452 0)
(1.99834 -0.00270367 0)
(1.99849 -0.0022577 -2.31398e-22)
(1.99864 -0.00185744 0)
(1.99879 -0.0015027 -4.6393e-22)
(1.99894 -0.00119245 2.31829e-22)
(1.99908 -0.000925034 -4.66179e-22)
(1.99921 -0.000698124 -2.79308e-21)
(1.99934 -0.000508936 -1.86039e-21)
(1.99945 -0.000354843 9.28601e-22)
(1.99956 -0.000232555 -2.91939e-25)
(1.99965 -0.000138668 -1.39625e-21)
(1.99974 -6.99134e-05 4.65511e-22)
(1.99981 -2.28163e-05 0)
(1.99987 6.06199e-06 0)
(1.99992 2.00749e-05 7.75285e-26)
(1.99995 2.25485e-05 0)
(1.99998 1.68313e-05 0)
(1.99999 6.17986e-06 -2.31358e-22)
(2.00297 -0.000360086 0)
(2.00297 -0.00108056 0)
(2.00297 -0.00180143 5.20458e-23)
(2.00297 -0.00252369 -5.5716e-23)
(2.00297 -0.00324724 0)
(2.00297 -0.003972 -1.14259e-22)
(2.00296 -0.00469776 5.84366e-23)
(2.00294 -0.00542365 6.0456e-23)
(2.00292 -0.00614848 0)
(2.00289 -0.00687018 0)
(2.00284 -0.00758669 -2.18056e-22)
(2.00278 -0.00829465 1.38753e-22)
(2.0027 -0.00898908 6.44888e-22)
(2.0026 -0.0096648 1.96088e-21)
(2.00248 -0.010318 0)
(2.00233 -0.010941 -3.66422e-22)
(2.00215 -0.0115273 -1.58909e-21)
(2.00194 -0.0120677 -4.12248e-22)
(2.00169 -0.0125531 -8.97296e-22)
(2.00142 -0.0129724 2.13407e-22)
(2.00111 -0.0133195 -5.08429e-22)
(2.00078 -0.0135855 -1.39024e-23)
(2.00043 -0.013761 -1.41617e-23)
(2.00006 -0.0138398 2.81529e-22)
(1.99967 -0.0138166 0)
(1.99929 -0.0136885 0)
(1.99891 -0.0134551 0)
(1.99854 -0.0131189 1.7353e-22)
(1.9982 -0.0126848 -1.80393e-22)
(1.99789 -0.0121606 0)
(1.99762 -0.0115572 3.8497e-22)
(1.9974 -0.010887 -3.89876e-22)
(1.99722 -0.0101635 0)
(1.99709 -0.00940157 0)
(1.99702 -0.00861594 6.42134e-22)
(1.99699 -0.00782103 -4.28478e-22)
(1.99702 -0.00703058 -4.4201e-22)
(1.99708 -0.00625687 8.89716e-22)
(1.99718 -0.00551055 -4.47672e-22)
(1.99731 -0.00480072 0)
(1.99747 -0.00413429 6.87061e-22)
(1.99765 -0.00351671 -4.59323e-22)
(1.99784 -0.00295141 -2.32505e-22)
(1.99803 -0.00244039 4.64673e-22)
(1.99823 -0.00198426 0)
(1.99843 -0.00158244 2.32628e-22)
(1.99863 -0.00123334 -4.68345e-22)
(1.99882 -0.000934636 4.6607e-22)
(1.99899 -0.000683268 -1.8691e-21)
(1.99916 -0.000476035 9.27565e-22)
(1.99931 -0.00030959 4.63586e-22)
(1.99945 -0.000179747 2.33193e-22)
(1.99957 -8.2662e-05 -2.33247e-22)
(1.99968 -1.43757e-05 -2.32815e-22)
(1.99977 2.92013e-05 4.65496e-22)
(1.99985 5.19994e-05 -1.62062e-25)
(1.99991 5.78762e-05 -4.64868e-22)
(1.99996 5.06497e-05 2.32282e-22)
(1.99999 3.41382e-05 0)
(2 1.20319e-05 0)
(2.00374 -0.00040349 0)
(2.00374 -0.00121091 0)
(2.00374 -0.00201916 -1.01006e-22)
(2.00374 -0.00282952 0)
(2.00374 -0.00364219 0)
(2.00374 -0.00445727 3.05794e-24)
(2.00373 -0.00527472 0)
(2.00372 -0.00609387 -6.00259e-23)
(2.00369 -0.00691363 -6.25719e-23)
(2.00366 -0.0077318 6.28313e-23)
(2.00361 -0.00854616 -2.78431e-22)
(2.00353 -0.00935349 2.78331e-22)
(2.00344 -0.0101487 0)
(2.00332 -0.0109243 -1.94303e-21)
(2.00316 -0.0116778 -2.93215e-22)
(2.00298 -0.0123991 4.44005e-22)
(2.00275 -0.0130813 -2.24846e-21)
(2.00249 -0.0137128 8.32277e-22)
(2.00219 -0.0142833 -4.20223e-22)
(2.00184 -0.0147793 0)
(2.00145 -0.0151928 -4.84446e-22)
(2.00103 -0.0155126 0)
(2.00057 -0.015727 -2.80555e-22)
(2.00009 -0.0158278 2.80609e-22)
(1.9996 -0.0158079 -3.10915e-22)
(1.99909 -0.0156633 1.51332e-22)
(1.9986 -0.015393 0)
(1.99813 -0.0149998 -1.73412e-22)
(1.99768 -0.0144894 5.44926e-22)
(1.99728 -0.0138712 1.89124e-22)
(1.99693 -0.0131587 -4.00137e-22)
(1.99664 -0.0123674 -2.13304e-22)
(1.99641 -0.0115138 4.0649e-22)
(1.99625 -0.0106163 0)
(1.99616 -0.00969294 2.20733e-22)
(1.99614 -0.00876144 7.10698e-24)
(1.99617 -0.00783814 6.09308e-24)
(1.99626 -0.00693791 -4.48312e-22)
(1.9964 -0.00607317 4.57834e-22)
(1.99657 -0.00525454 -6.89466e-22)
(1.99678 -0.00448973 2.32949e-22)
(1.99701 -0.00378469 0)
(1.99726 -0.003143 2.32558e-22)
(1.99752 -0.00256639 -2.33289e-22)
(1.99778 -0.00205503 0)
(1.99804 -0.00160772 0)
(1.99829 -0.00122212 4.68398e-22)
(1.99853 -0.000895179 -5.48688e-24)
(1.99875 -0.000622718 -1.69197e-24)
(1.99896 -0.000401249 1.86722e-21)
(1.99916 -0.000226325 4.67591e-22)
(1.99933 -9.30216e-05 2.34102e-22)
(1.99949 3.12786e-06 2.33389e-22)
(1.99963 6.6854e-05 -2.90527e-25)
(1.99974 0.000102842 -2.32917e-22)
(1.99984 0.000115521 0)
(1.99992 0.000109282 0)
(1.99998 8.84311e-05 -4.64562e-22)
(2.00001 5.72391e-05 0)
(2.00003 1.98147e-05 0)
(2.00459 -0.000446622 0)
(2.00459 -0.00134052 0)
(2.00459 -0.00223572 1.11874e-24)
(2.0046 -0.00313401 4.78192e-23)
(2.0046 -0.00403582 0)
(2.0046 -0.00494165 5.27881e-23)
(2.0046 -0.00585168 5.42774e-23)
(2.00458 -0.00676551 2.49298e-24)
(2.00456 -0.0076822 2.95411e-24)
(2.00452 -0.00859978 -6.27762e-23)
(2.00447 -0.00951562 6.27497e-23)
(2.00439 -0.0104265 6.64518e-23)
(2.00428 -0.0113281 -1.41296e-22)
(2.00414 -0.0122106 -1.20404e-21)
(2.00395 -0.0130712 -3.43755e-22)
(2.00373 -0.0139001 1.38936e-21)
(2.00346 -0.0146875 1.14172e-21)
(2.00314 -0.0154201 -7.96085e-22)
(2.00276 -0.0160866 8.48655e-22)
(2.00233 -0.0166702 1.35113e-21)
(2.00185 -0.0171608 2.35819e-22)
(2.00132 -0.0175438 -6.28771e-24)
(2.00075 -0.0178053 -2.79422e-22)
(2.00014 -0.0179341 5.75003e-22)
(1.99951 -0.0179211 -2.95609e-22)
(1.99887 -0.0177603 1.59545e-22)
(1.99824 -0.0174502 0)
(1.99764 -0.0169934 1.76821e-22)
(1.99707 -0.0163967 1.91623e-22)
(1.99656 -0.0156717 -1.8213e-22)
(1.99612 -0.0148348 1.97655e-22)
(1.99575 -0.0139054 2.01997e-22)
(1.99547 -0.0129038 2.12332e-22)
(1.99527 -0.0118527 -4.23933e-22)
(1.99516 -0.0107741 0)
(1.99514 -0.00968973 -4.49069e-22)
(1.99519 -0.00861913 -5.91144e-24)
(1.99531 -0.00757997 4.55429e-22)
(1.9955 -0.00658659 -4.64335e-22)
(1.99573 -0.00565126 -6.29544e-24)
(1.996 -0.00478247 -1.4675e-24)
(1.9963 -0.00398644 -7.08365e-22)
(1.99662 -0.00326668 4.71575e-22)
(1.99695 -0.00262443 -2.37626e-22)
(1.99728 -0.00205915 -2.37621e-22)
(1.9976 -0.00156874 -9.45675e-22)
(1.99792 -0.00114984 2.83343e-21)
(1.99822 -0.000798344 7.17173e-24)
(1.9985 -0.000509205 3.76846e-21)
(1.99876 -0.000278221 1.41251e-21)
(1.999 -9.95376e-05 -2.35521e-22)
(1.99922 3.23593e-05 -4.68739e-22)
(1.99941 0.000122747 -2.337e-22)
(1.99958 0.000177174 2.33674e-22)
(1.99972 0.000200879 -2.32988e-22)
(1.99984 0.000198831 -2.32593e-22)
(1.99994 0.000175971 2.32585e-22)
(2.00001 0.000137068 9.72587e-26)
(2.00006 8.68309e-05 2.32168e-22)
(2.00008 2.97629e-05 0)
(2.00552 -0.000489289 0)
(2.00553 -0.00146878 0)
(2.00553 -0.00245021 0)
(2.00554 -0.00343583 -4.53733e-23)
(2.00555 -0.00442652 4.5351e-23)
(2.00555 -0.00542325 -4.85461e-23)
(2.00556 -0.00642645 4.85222e-23)
(2.00555 -0.00743614 0)
(2.00553 -0.00845166 0)
(2.00549 -0.00947135 5.9123e-23)
(2.00543 -0.0104927 -1.21816e-22)
(2.00535 -0.0115117 -3.6949e-24)
(2.00523 -0.0125252 2.92089e-22)
(2.00507 -0.0135229 9.18442e-22)
(2.00486 -0.0144985 6.50298e-22)
(2.0046 -0.0154449 -6.51133e-22)
(2.00428 -0.0163483 -7.26851e-22)
(2.00389 -0.0171944 4.68106e-22)
(2.00344 -0.01797 -4.07791e-22)
(2.00292 -0.0186547 -3.74187e-23)
(2.00233 -0.0192353 -9.78895e-22)
(2.00167 -0.0196935 1.99724e-21)
(2.00096 -0.0200127 -2.6123e-22)
(2.00021 -0.0201778 0)
(1.99942 -0.0201765 0)
(1.99862 -0.0200007 0)
(1.99783 -0.0196474 0)
(1.99707 -0.0191192 -1.76695e-22)
(1.99636 -0.0184244 1.95082e-22)
(1.99572 -0.0175767 5.55397e-24)
(1.99516 -0.0165966 0)
(1.99471 -0.015508 2.10955e-22)
(1.99436 -0.0143364 -2.09501e-22)
(1.99412 -0.0131097 2.21042e-22)
(1.994 -0.0118549 4.50274e-22)
(1.99398 -0.0105982 -6.80153e-22)
(1.99406 -0.00936314 -4.63407e-22)
(1.99423 -0.00817057 2.28299e-22)
(1.99447 -0.0070371 0)
(1.99477 -0.00597639 2.34938e-22)
(1.99512 -0.00499775 -3.43054e-24)
(1.9955 -0.00410745 -3.11186e-24)
(1.9959 -0.00330849 -2.40279e-22)
(1.99631 -0.00260136 -4.80065e-22)
(1.99672 -0.00198444 7.15317e-22)
(1.99713 -0.00145438 -1.9045e-21)
(1.99752 -0.00100626 1.90247e-21)
(1.99789 -0.000635305 -3.78232e-21)
(1.99823 -0.000335045 4.26747e-21)
(1.99855 -0.000100113 -1.416e-21)
(1.99885 7.66178e-05 0)
(1.99911 0.000201361 2.3456e-22)
(1.99934 0.000280408 -2.34524e-22)
(1.99955 0.000320078 0)
(1.99972 0.000326142 0)
(1.99986 0.000304163 0)
(1.99998 0.000259634 0)
(2.00006 0.000197742 0)
(2.00012 0.000123615 0)
(2.00015 4.21105e-05 0)
(2.00655 -0.000531231 0)
(2.00655 -0.00159495 0)
(2.00656 -0.00266133 0)
(2.00657 -0.00373329 0)
(2.00659 -0.00481206 0)
(2.0066 -0.00589932 4.45907e-23)
(2.00661 -0.00699587 -9.12225e-23)
(2.00661 -0.00810225 4.66352e-23)
(2.0066 -0.00921822 -5.18849e-23)
(2.00657 -0.0103425 -3.21723e-24)
(2.00651 -0.0114729 5.50482e-23)
(2.00642 -0.0126052 0)
(2.00629 -0.0137364 -1.35127e-22)
(2.00612 -0.0148572 -4.42978e-22)
(2.00588 -0.0159581 2.97787e-21)
(2.00558 -0.0170326 -1.24105e-21)
(2.00521 -0.0180646 6.9133e-22)
(2.00476 -0.0190386 -3.45042e-24)
(2.00423 -0.0199389 5.05936e-22)
(2.00361 -0.0207417 -8.96186e-22)
(2.00289 -0.0214279 -1.83617e-21)
(2.0021 -0.0219768 -6.95465e-24)
(2.00123 -0.0223676 0)
(2.00031 -0.0225798 -2.94805e-22)
(1.99934 -0.0225972 -1.85734e-23)
(1.99835 -0.0224084 3.13707e-22)
(1.99736 -0.0220086 0)
(1.99642 -0.0214 0)
(1.99553 -0.0205924 -1.81578e-22)
(1.99473 -0.0196025 -3.87459e-22)
(1.99404 -0.0184559 4.1601e-22)
(1.99349 -0.0171823 -2.07054e-22)
(1.99306 -0.0158138 0)
(1.99279 -0.0143846 -6.72533e-22)
(1.99265 -0.012928 2.20823e-22)
(1.99264 -0.0114758 4.61963e-22)
(1.99276 -0.0100563 -4.67467e-22)
(1.99299 -0.00869367 2.35434e-22)
(1.9933 -0.00740724 2.38265e-22)
(1.99369 -0.00621202 -7.23326e-22)
(1.99413 -0.0051177 -3.81958e-24)
(1.99461 -0.00413035 -3.43687e-24)
(1.99511 -0.00325204 2.40389e-22)
(1.99562 -0.00248201 -2.67197e-24)
(1.99613 -0.00181701 0)
(1.99662 -0.00125218 1.11337e-23)
(1.9971 -0.000780593 1.91698e-21)
(1.99755 -0.000396639 -3.8292e-21)
(1.99797 -9.18854e-05 2.54514e-22)
(1.99835 0.000140294 -2.37481e-22)
(1.9987 0.000308251 0)
(1.99902 0.000419175 2.34908e-22)
(1.99929 0.000480451 -2.34869e-22)
(1.99953 0.000499104 0)
(1.99974 0.000481474 0)
(1.99991 0.000433751 0)
(2.00004 0.00036194 2.32062e-22)
(2.00015 0.000271614 -2.32051e-22)
(2.00021 0.000168279 0)
(2.00025 5.70885e-05 0)
(2.00765 -0.000572128 0)
(2.00766 -0.001718 0)
(2.00767 -0.00286744 0)
(2.00769 -0.00402404 0)
(2.00772 -0.00518953 0)
(2.00774 -0.00636637 -4.02867e-23)
(2.00776 -0.00755586 8.25727e-23)
(2.00777 -0.00875919 2.41006e-24)
(2.00777 -0.00997675 2.78756e-24)
(2.00775 -0.0112077 5.38048e-23)
(2.0077 -0.0124505 -1.55376e-22)
(2.00761 -0.0137011 -4.05593e-24)
(2.00748 -0.0149563 5.81887e-23)
(2.00729 -0.016208 -1.36365e-22)
(2.00704 -0.0174456 -8.46063e-22)
(2.0067 -0.0186603 -9.02698e-22)
(2.00628 -0.0198353 -4.35476e-23)
(2.00577 -0.0209539 5.43709e-23)
(2.00515 -0.021997 2.73868e-22)
(2.00441 -0.0229377 -1.28767e-21)
(2.00357 -0.0237502 -1.30977e-21)
(2.00262 -0.0244099 -4.94022e-22)
(2.00157 -0.0248901 0)
(2.00044 -0.025164 -2.94166e-22)
(1.99925 -0.0252098 -2.01514e-23)
(1.99804 -0.0250119 3.1471e-22)
(1.99683 -0.0245623 1.73646e-22)
(1.99566 -0.0238627 0)
(1.99456 -0.0229246 3.8791e-22)
(1.99358 -0.0217684 -6.10792e-22)
(1.99274 -0.0204263 2.05172e-22)
(1.99206 -0.0189358 -4.39992e-22)
(1.99156 -0.0173369 6.66204e-22)
(1.99123 -0.0156723 1.0031e-23)
(1.99109 -0.013983 -2.32154e-22)
(1.99111 -0.0123078 2.34961e-22)
(1.99128 -0.0106803 0)
(1.99158 -0.00912889 0)
(1.99199 -0.00767536 -2.47621e-22)
(1.99248 -0.00633608 4.85192e-22)
(1.99304 -0.00512075 2.43665e-22)
(1.99363 -0.00403464 -3.76656e-24)
(1.99425 -0.0030782 -4.9377e-22)
(1.99488 -0.00224892 -7.32897e-22)
(1.9955 -0.00154112 2.9319e-21)
(1.99609 -0.000947811 -1.9287e-21)
(1.99666 -0.000460545 9.61931e-22)
(1.9972 -7.18425e-05 2.86921e-21)
(1.9977 0.000229317 -3.33886e-21)
(1.99816 0.000450555 -4.76843e-22)
(1.99857 0.000601696 0)
(1.99894 0.000691116 -2.35183e-22)
(1.99926 0.000727235 2.35153e-22)
(1.99955 0.000717757 0)
(1.99979 0.000669672 2.32772e-22)
(1.99998 0.000589773 -2.32748e-22)
(2.00014 0.000484521 0)
(2.00026 0.000359811 0)
(2.00034 0.000221479 0)
(2.00037 7.49195e-05 0)
(2.00884 -0.000611602 0)
(2.00885 -0.00183684 0)
(2.00887 -0.0030667 0)
(2.0089 -0.00430546 0)
(2.00893 -0.00555554 0)
(2.00897 -0.00682021 0)
(2.009 -0.00810137 -3.76049e-23)
(2.00903 -0.00940114 -2.34845e-24)
(2.00905 -0.0107206 -4.53596e-23)
(2.00904 -0.0120597 3.94726e-23)
(2.009 -0.0134177 -5.28381e-23)
(2.00893 -0.0147911 9.84829e-23)
(2.0088 -0.0161766 -1.15535e-22)
(2.00861 -0.0175675 -1.01205e-23)
(2.00834 -0.0189526 1.1699e-21)
(2.00798 -0.0203209 -2.98277e-22)
(2.00751 -0.0216563 -6.48698e-22)
(2.00693 -0.022939 -1.21706e-22)
(2.00621 -0.0241468 -3.26199e-23)
(2.00537 -0.0252493 1.18119e-21)
(2.00437 -0.0262133 1.04077e-22)
(2.00325 -0.0270095 -2.50329e-22)
(2.00199 -0.0276026 3.79964e-22)
(2.00063 -0.027958 1.4063e-22)
(1.99919 -0.0280463 0)
(1.9977 -0.0278454 1.64e-22)
(1.99621 -0.0273432 -1.73473e-22)
(1.99478 -0.0265402 3.81155e-22)
(1.99343 -0.0254499 -5.68457e-22)
(1.99223 -0.0240975 6.23183e-22)
(1.99121 -0.0225236 -2.10267e-22)
(1.99039 -0.020776 4.52292e-22)
(1.9898 -0.0189053 -2.26231e-22)
(1.98943 -0.016965 7.15455e-22)
(1.98928 -0.0150058 8.10352e-24)
(1.98934 -0.0130748 -7.3296e-22)
(1.98958 -0.0112119 -4.95799e-22)
(1.98998 -0.00945042 4.96126e-22)
(1.99051 -0.00781471 0)
(1.99114 -0.00632189 2.47972e-22)
(1.99183 -0.00498119 -2.52707e-22)
(1.99257 -0.00379621 -2.55931e-22)
(1.99333 -0.00276497 -7.11606e-24)
(1.99409 -0.00188221 0)
(1.99483 -0.00113883 1.99675e-21)
(1.99555 -0.000526201 -3.92721e-21)
(1.99623 -3.33971e-05 -1.46713e-21)
(1.99686 0.000350238 -4.84796e-22)
(1.99744 0.00063787 2.39351e-22)
(1.99798 0.000838368 -1.6709e-21)
(1.99846 0.000963359 7.12341e-22)
(1.99889 0.00102243 -2.36528e-22)
(1.99927 0.00102498 0)
(1.99959 0.000979409 0)
(1.99987 0.00089339 0)
(2.0001 0.000774263 -2.31845e-22)
(2.00027 0.000628864 5.09938e-25)
(2.00041 0.000463357 2.31338e-22)
(2.0005 0.000283818 0)
(2.00054 9.58063e-05 0)
(2.0101 -0.000649154 -2.57263e-23)
(2.01011 -0.00195008 2.57952e-23)
(2.01014 -0.00325686 0)
(2.01018 -0.00457434 -2.78339e-23)
(2.01023 -0.00590589 2.78151e-23)
(2.01028 -0.00725563 0)
(2.01034 -0.00862634 3.25406e-23)
(2.01039 -0.010021 2.26384e-24)
(2.01043 -0.0114417 -7.21546e-23)
(2.01044 -0.0128895 -4.34677e-23)
(2.01043 -0.0143647 3.69005e-23)
(2.01037 -0.0158647 4.38482e-23)
(2.01026 -0.0173867 0)
(2.01007 -0.0189248 0)
(2.00979 -0.0204689 -1.47507e-22)
(2.00941 -0.0220054 -4.02725e-22)
(2.00891 -0.0235201 5.77331e-22)
(2.00826 -0.0249894 -4.95486e-22)
(2.00746 -0.0263879 -3.41319e-23)
(2.00649 -0.0276815 7.4091e-22)
(2.00534 -0.0288285 3.05746e-21)
(2.00401 -0.0297937 -4.90188e-22)
(2.00252 -0.0305305 3.47316e-22)
(2.00089 -0.0309942 1.27778e-22)
(1.99915 -0.0311449 0)
(1.99734 -0.0309511 -1.63792e-22)
(1.99552 -0.0303947 0)
(1.99376 -0.0294738 1.94527e-22)
(1.99212 -0.0282043 1.09165e-23)
(1.99065 -0.026618 -8.41895e-22)
(1.98941 -0.0247665 1.34946e-21)
(1.98843 -0.0227115 1.54537e-23)
(1.98774 -0.0205174 -4.674e-22)
(1.98733 -0.0182515 8.17852e-24)
(1.98719 -0.015977 -2.47179e-22)
(1.98731 -0.0137511 7.48385e-22)
(1.98765 -0.0116214 0)
(1.98818 -0.00962619 0)
(1.98886 -0.00779234 -5.12239e-22)
(1.98965 -0.00613722 1.07972e-24)
(1.99052 -0.00466863 1.02243e-21)
(1.99142 -0.00338709 -8.82086e-24)
(1.99234 -0.00228728 -7.56525e-24)
(1.99326 -0.00136 2.01791e-21)
(1.99415 -0.000591727 -1.19522e-20)
(1.99499 2.80863e-05 4.91745e-21)
(1.99579 0.000514395 9.69223e-22)
(1.99653 0.000881089 0)
(1.99721 0.00114316 0)
(1.99783 0.00131141 9.55592e-22)
(1.99839 0.00139949 2.36855e-22)
(1.99888 0.00141811 -2.36785e-22)
(1.99931 0.00137761 0)
(1.99968 0.00128714 -2.3303e-22)
(1.99999 0.00115501 2.33e-22)
(2.00025 0.000989035 0)
(2.00045 0.000796286 0)
(2.0006 0.000583133 2.30341e-22)
(2.0007 0.000355804 -2.30356e-22)
(2.00075 0.00011992 0)
(2.01144 -0.000684346 0)
(2.01145 -0.0020563 0)
(2.01149 -0.00343536 2.17747e-23)
(2.01154 -0.00482718 -2.17593e-23)
(2.01161 -0.00623603 0)
(2.01169 -0.00766691 0)
(2.01177 -0.00912382 -2.71207e-23)