/*--------------------------------*- C++ -*----------------------------------*\
  =========                 |
  \\      /  F ield         | OpenFOAM: The Open Source CFD Toolbox
   \\    /   O peration     | Website:  https://openfoam.org
    \\  /    A nd           | Version:  12
     \\/     M anipulation  |
\*---------------------------------------------------------------------------*/
FoamFile
{
    format      ascii;
    class       volScalarField;
    location    "40";
    object      k;
}
// * * * * * * * * * * * * * * * * * * * * * * * * * * * * * * * * * * * * * //

dimensions      [0 2 -2 0 0 0 0];

internalField   nonuniform List<scalar> 
16227
(
0.00914646
0.00914648
0.00914647
0.00914651
0.0091465
0.00914654
0.00914653
0.00914652
0.00914651
0.00914653
0.00914657
0.00914659
0.00914665
0.00914665
0.00914665
0.00914665
0.00914665
0.00914665
0.00914665
0.00914665
0.00914665
0.00914665
0.00914665
0.00914665
0.00914665
0.00914665
0.00914665
0.00914666
0.00914667
0.00914664
0.00914665
0.00914665
0.00914665
0.00914665
0.00914665
0.00914665
0.00914665
0.00914665
0.00914665
0.00914665
0.00914665
0.00914665
0.00914665
0.00914665
0.00914665
0.00914665
0.00914665
0.00914663
0.00914662
0.00914662
0.00914662
0.0091466
0.00914654
0.00914654
0.00914649
0.00914649
0.00914651
0.00914649
0.00914647
0.00914646
0.00848123
0.00848125
0.00848125
0.00848128
0.00848129
0.00848132
0.00848131
0.00848128
0.00848129
0.00848131
0.00848136
0.00848138
0.00848153
0.00848158
0.0084816
0.0084816
0.0084816
0.00848159
0.00848159
0.00848159
0.00848161
0.00848162
0.00848162
0.00848162
0.00848161
0.00848161
0.00848161
0.0084816
0.00848159
0.00848153
0.00848158
0.0084816
0.0084816
0.0084816
0.0084816
0.00848159
0.00848157
0.00848157
0.00848157
0.00848157
0.00848157
0.00848157
0.00848157
0.00848155
0.00848155
0.00848154
0.00848154
0.00848154
0.00848154
0.00848153
0.0084815
0.00848145
0.00848133
0.00848132
0.00848128
0.00848126
0.0084813
0.00848122
0.00848123
0.0084812
0.00790078
0.0079008
0.00790081
0.00790082
0.00790082
0.00790091
0.00790086
0.00790085
0.00790086
0.00790087
0.00790092
0.00790093
0.00790119
0.00790125
0.00790126
0.00790127
0.00790127
0.00790126
0.00790129
0.00790123
0.00790126
0.00790127
0.00790127
0.00790126
0.00790125
0.00790125
0.00790124
0.00790124
0.00790123
0.00790115
0.00790121
0.00790121
0.00790121
0.00790121
0.00790121
0.00790121
0.00790121
0.00790119
0.00790118
0.00790118
0.00790118
0.00790118
0.00790117
0.00790116
0.00790116
0.00790116
0.00790115
0.00790115
0.00790114
0.00790112
0.00790108
0.00790088
0.00790081
0.00790079
0.00790077
0.00790077
0.0079008
0.00790071
0.00790072
0.0079007
0.00739029
0.00739031
0.00739032
0.00739033
0.00739034
0.00739041
0.00739041
0.00739038
0.00739039
0.00739038
0.00739043
0.0073905
0.00739076
0.00739084
0.00739085
0.00739087
0.00739088
0.00739089
0.00739082
0.00739069
0.0073908
0.00739084
0.00739082
0.00739082
0.00739082
0.00739081
0.00739079
0.00739078
0.00739075
0.00739065
0.00739072
0.00739073
0.00739071
0.00739071
0.0073907
0.00739071
0.00739071
0.0073907
0.0073907
0.00739069
0.00739069
0.00739068
0.00739068
0.00739068
0.00739067
0.00739066
0.00739067
0.00739066
0.00739066
0.00739063
0.00739051
0.00739032
0.00739022
0.00739024
0.00739023
0.00739025
0.00739023
0.00739015
0.00739015
0.00739013
0.00693817
0.00693818
0.00693819
0.00693821
0.00693822
0.00693828
0.00693831
0.00693825
0.00693827
0.00693828
0.00693832
0.00693838
0.00693864
0.00693877
0.00693879
0.00693879
0.0069388
0.00693877
0.00693856
0.00693848
0.00693867
0.00693873
0.00693871
0.00693869
0.00693867
0.00693864
0.00693862
0.0069386
0.00693856
0.00693845
0.00693852
0.00693853
0.00693853
0.00693851
0.0069385
0.0069385
0.0069385
0.00693851
0.0069385
0.0069385
0.00693851
0.00693852
0.0069385
0.0069385
0.0069385
0.00693851
0.0069385
0.0069385
0.0069385
0.00693841
0.00693817
0.00693806
0.00693798
0.00693801
0.00693803
0.00693808
0.00693801
0.00693794
0.00693794
0.00693793
0.00653519
0.00653521
0.00653521
0.00653523
0.00653524
0.00653529
0.00653534
0.0065353
0.00653529
0.00653529
0.00653531
0.00653535
0.00653548
0.00653577
0.00653584
0.00653586
0.00653586
0.00653575
0.00653551
0.00653546
0.00653567
0.00653572
0.00653569
0.00653565
0.00653562
0.00653559
0.00653556
0.00653552
0.00653546
0.00653534
0.00653541
0.00653541
0.00653541
0.0065354
0.0065354
0.0065354
0.0065354
0.00653541
0.00653541
0.00653541
0.00653542
0.00653543
0.00653543
0.00653545
0.00653544
0.00653545
0.00653545
0.00653545
0.00653545
0.0065353
0.00653506
0.00653495
0.00653491
0.00653496
0.00653501
0.00653499
0.00653494
0.00653488
0.00653488
0.00653486
0.00617397
0.00617399
0.00617398
0.006174
0.00617401
0.00617406
0.00617411
0.0061741
0.00617408
0.00617408
0.00617408
0.00617409
0.00617421
0.00617448
0.00617462
0.00617465
0.00617462
0.00617432
0.0061742
0.00617419
0.0061744
0.00617442
0.00617438
0.00617433
0.00617428
0.00617423
0.00617418
0.00617413
0.00617407
0.00617393
0.00617399
0.006174
0.00617398
0.00617398
0.00617398
0.00617398
0.00617399
0.00617401
0.00617402
0.00617404
0.00617405
0.00617407
0.00617409
0.00617409
0.00617412
0.00617412
0.00617413
0.00617414
0.00617407
0.0061738
0.00617367
0.00617358
0.00617359
0.00617366
0.00617367
0.00617366
0.00617361
0.00617356
0.00617357
0.00617355
0.00584849
0.0058485
0.0058485
0.00584853
0.00584852
0.00584857
0.00584862
0.00584863
0.00584861
0.00584859
0.00584858
0.00584856
0.00584863
0.00584877
0.00584907
0.00584917
0.0058491
0.00584876
0.00584865
0.00584863
0.00584884
0.00584885
0.00584879
0.00584872
0.00584864
0.00584857
0.00584851
0.00584844
0.00584835
0.0058482
0.00584827
0.00584827
0.00584826
0.00584825
0.00584826
0.00584827
0.00584829
0.00584831
0.00584834
0.00584837
0.0058484
0.00584842
0.00584845
0.00584848
0.00584851
0.00584852
0.00584854
0.00584853
0.0058484
0.00584815
0.00584803
0.00584799
0.00584804
0.00584808
0.00584808
0.00584807
0.00584803
0.00584798
0.00584799
0.00584798
0.00555383
0.00555383
0.00555384
0.00555385
0.00555387
0.0055539
0.00555395
0.00555396
0.00555397
0.00555394
0.00555392
0.00555388
0.00555392
0.00555403
0.00555439
0.00555449
0.00555434
0.00555402
0.00555392
0.00555388
0.00555408
0.00555407
0.00555397
0.00555388
0.00555378
0.00555369
0.0055536
0.00555352
0.00555342
0.00555324
0.0055533
0.0055533
0.00555329
0.00555329
0.0055533
0.00555333
0.00555336
0.0055534
0.00555344
0.00555348
0.00555352
0.00555358
0.00555361
0.00555365
0.00555368
0.00555373
0.00555374
0.00555367
0.00555341
0.00555328
0.00555321
0.00555325
0.00555327
0.00555331
0.00555331
0.00555331
0.00555328
0.00555323
0.00555323
0.00555323
0.00528591
0.00528592
0.00528592
0.00528594
0.00528594
0.00528598
0.00528603
0.00528604
0.00528605
0.00528605
0.00528601
0.00528597
0.005286
0.00528612
0.00528641
0.00528651
0.0052862
0.00528601
0.00528591
0.00528588
0.00528604
0.005286
0.00528589
0.00528576
0.00528564
0.00528552
0.00528541
0.00528529
0.00528517
0.00528499
0.00528504
0.00528503
0.00528502
0.00528503
0.00528505
0.00528509
0.00528513
0.00528519
0.00528526
0.00528532
0.00528538
0.00528544
0.00528551
0.00528556
0.00528561
0.00528566
0.00528568
0.00528559
0.00528531
0.00528521
0.0052852
0.00528522
0.00528524
0.00528528
0.00528529
0.0052853
0.00528526
0.00528523
0.00528523
0.00528523
0.00504134
0.00504135
0.00504135
0.00504136
0.00504138
0.00504142
0.00504146
0.00504147
0.00504148
0.00504148
0.00504147
0.0050414
0.00504138
0.00504145
0.00504158
0.00504181
0.00504153
0.00504136
0.00504127
0.0050412
0.00504128
0.00504126
0.00504113
0.00504097
0.00504081
0.00504066
0.00504051
0.00504038
0.00504024
0.00504004
0.00504007
0.00504007
0.00504006
0.00504007
0.00504011
0.00504017
0.00504024
0.00504031
0.0050404
0.00504049
0.00504057
0.00504065
0.00504074
0.00504081
0.00504087
0.00504092
0.00504088
0.00504074
0.00504058
0.00504051
0.00504052
0.00504054
0.00504057
0.00504062
0.00504063
0.00504064
0.00504061
0.00504058
0.00504059
0.00504058
0.00481726
0.00481727
0.00481728
0.0048173
0.00481731
0.00481735
0.00481739
0.00481741
0.00481741
0.00481741
0.0048174
0.00481736
0.00481731
0.00481733
0.00481742
0.0048176
0.00481739
0.00481723
0.00481709
0.00481699
0.00481691
0.00481697
0.00481684
0.00481665
0.00481645
0.00481626
0.00481608
0.00481592
0.00481575
0.00481553
0.00481556
0.00481555
0.00481555
0.00481558
0.00481563
0.0048157
0.00481579
0.0048159
0.004816
0.00481612
0.00481623
0.00481634
0.00481644
0.00481655
0.00481662
0.00481664
0.00481651
0.00481646
0.00481638
0.00481632
0.00481634
0.00481638
0.00481641
0.00481646
0.00481647
0.00481649
0.00481646
0.00481643
0.00481644
0.00481643
0.00461128
0.00461129
0.00461129
0.00461131
0.00461133
0.00461137
0.0046114
0.00461143
0.00461143
0.00461143
0.00461143
0.00461139
0.00461134
0.00461129
0.00461129
0.00461132
0.00461129
0.00461118
0.00461103
0.00461088
0.00461072
0.00461078
0.00461062
0.00461039
0.00461015
0.00460991
0.00460969
0.0046095
0.00460931
0.00460907
0.00460909
0.00460907
0.00460908
0.00460912
0.00460919
0.0046093
0.00460941
0.00460955
0.00460969
0.00460983
0.00460998
0.00461012
0.00461024
0.00461036
0.00461044
0.00461044
0.00461034
0.00461034
0.00461026
0.00461023
0.00461026
0.0046103
0.00461034
0.00461038
0.00461041
0.00461041
0.0046104
0.00461038
0.00461038
0.00461038
0.00442132
0.00442134
0.00442134
0.00442136
0.00442138
0.00442142
0.00442145
0.00442148
0.00442149
0.0044215
0.00442149
0.00442145
0.00442141
0.00442136
0.00442129
0.00442129
0.00442129
0.00442118
0.004421
0.00442082
0.00442062
0.00442064
0.00442043
0.00442014
0.00441985
0.00441957
0.00441931
0.00441907
0.00441884
0.00441859
0.00441859
0.00441858
0.0044186
0.00441866
0.00441876
0.00441888
0.00441904
0.00441921
0.00441939
0.00441957
0.00441974
0.00441992
0.00442007
0.0044202
0.00442023
0.00442021
0.00442022
0.00442023
0.00442019
0.00442018
0.00442021
0.00442026
0.00442031
0.00442035
0.00442038
0.00442039
0.00442038
0.00442036
0.00442037
0.00442036
0.00424563
0.00424565
0.00424566
0.00424568
0.0042457
0.00424574
0.00424578
0.00424581
0.00424583
0.00424583
0.00424583
0.00424579
0.00424575
0.0042457
0.00424564
0.00424561
0.00424561
0.00424546
0.00424525
0.00424504
0.0042448
0.00424476
0.0042445
0.00424416
0.00424381
0.00424347
0.00424315
0.00424287
0.00424261
0.00424233
0.00424233
0.00424232
0.00424235
0.00424243
0.00424256
0.00424272
0.00424292
0.00424313
0.00424335
0.00424357
0.00424378
0.00424399
0.00424417
0.00424428
0.00424424
0.00424431
0.00424436
0.0042444
0.0042444
0.0042444
0.00424446
0.00424451
0.00424456
0.0042446
0.00424463
0.00424465
0.00424464
0.00424463
0.00424463
0.00424463
0.00408271
0.00408272
0.00408273
0.00408276
0.00408278
0.00408283
0.00408288
0.0040829
0.00408293
0.00408294
0.00408294
0.00408291
0.00408287
0.00408281
0.00408275
0.00408272
0.00408268
0.00408253
0.00408228
0.00408202
0.00408175
0.00408159
0.00408132
0.00408092
0.00408051
0.0040801
0.00407973
0.00407939
0.00407909
0.00407878
0.00407876
0.00407876
0.0040788
0.00407891
0.00407908
0.00407929
0.00407953
0.0040798
0.00408006
0.00408033
0.00408058
0.00408082
0.00408103
0.00408112
0.00408113
0.00408121
0.0040813
0.00408132
0.00408134
0.00408139
0.00408147
0.00408152
0.00408158
0.00408163
0.00408166
0.00408168
0.00408167
0.00408166
0.00408167
0.00408166
0.00393123
0.00393124
0.00393126
0.00393128
0.00393131
0.00393136
0.00393141
0.00393145
0.00393148
0.00393151
0.00393151
0.00393148
0.00393145
0.00393139
0.00393133
0.00393128
0.00393124
0.00393105
0.00393079
0.00393047
0.00393013
0.00392979
0.00392956
0.00392913
0.00392865
0.00392816
0.00392771
0.00392731
0.00392697
0.00392663
0.0039266
0.0039266
0.00392667
0.00392681
0.00392702
0.00392729
0.00392759
0.0039279
0.00392822
0.00392854
0.00392884
0.00392911
0.00392927
0.00392936
0.00392947
0.0039296
0.00392971
0.00392974
0.00392978
0.00392987
0.00392994
0.00393
0.00393006
0.00393011
0.00393014
0.00393016
0.00393016
0.00393015
0.00393016
0.00393015
0.00379005
0.00379007
0.00379009
0.00379012
0.00379015
0.00379021
0.00379027
0.00379031
0.00379035
0.00379038
0.0037904
0.00379038
0.00379035
0.0037903
0.00379023
0.00379018
0.00379012
0.00378993
0.00378963
0.00378926
0.00378886
0.00378842
0.00378815
0.00378766
0.00378708
0.00378651
0.00378598
0.00378551
0.0037851
0.00378473
0.00378469
0.00378469
0.00378479
0.00378498
0.00378525
0.00378558
0.00378594
0.00378632
0.0037867
0.00378707
0.00378741
0.00378768
0.00378778
0.00378797
0.00378815
0.00378833
0.00378845
0.0037885
0.00378857
0.00378866
0.00378874
0.00378881
0.00378886
0.00378891
0.00378895
0.00378897
0.00378896
0.00378896
0.00378896
0.00378896
0.00365819
0.00365821
0.00365823
0.00365826
0.00365831
0.00365837
0.00365844
0.00365849
0.00365855
0.00365859
0.00365861
0.00365861
0.00365859
0.00365854
0.00365847
0.00365842
0.00365835
0.00365813
0.00365782
0.00365742
0.00365696
0.00365646
0.00365605
0.00365551
0.00365484
0.00365416
0.00365353
0.00365297
0.0036525
0.00365209
0.00365203
0.00365205
0.00365218
0.00365243
0.00365277
0.00365317
0.0036536
0.00365406
0.0036545
0.00365492
0.00365531
0.00365559
0.00365574
0.00365597
0.0036562
0.00365638
0.00365649
0.00365657
0.00365668
0.00365678
0.00365687
0.00365694
0.003657
0.00365705
0.00365708
0.0036571
0.00365709
0.00365709
0.0036571
0.0036571
0.00353477
0.00353479
0.00353481
0.00353485
0.0035349
0.00353498
0.00353505
0.00353512
0.00353518
0.00353524
0.00353528
0.00353529
0.00353528
0.00353525
0.00353519
0.00353512
0.00353504
0.00353483
0.0035345
0.00353407
0.00353354
0.00353296
0.00353234
0.00353179
0.00353106
0.00353026
0.00352951
0.00352885
0.0035283
0.00352785
0.00352777
0.00352781
0.00352799
0.0035283
0.00352872
0.0035292
0.00352972
0.00353025
0.00353074
0.00353118
0.00353158
0.00353189
0.00353217
0.00353246
0.00353272
0.00353291
0.00353302
0.00353313
0.00353326
0.00353337
0.00353346
0.00353353
0.00353359
0.00353364
0.00353367
0.00353368
0.00353368
0.00353367
0.00353368
0.00353368
0.00341901
0.00341904
0.00341907
0.00341911
0.00341917
0.00341925
0.00341934
0.00341942
0.0034195
0.00341957
0.00341963
0.00341966
0.00341968
0.00341966
0.0034196
0.00341951
0.0034194
0.00341923
0.00341891
0.00341845
0.00341789
0.00341722
0.00341648
0.00341586
0.003415
0.00341407
0.00341319
0.0034124
0.00341175
0.00341124
0.00341114
0.00341121
0.00341145
0.00341184
0.00341235
0.00341292
0.00341353
0.00341411
0.00341467
0.00341518
0.00341556
0.00341595
0.00341633
0.00341667
0.00341694
0.00341711
0.00341725
0.0034174
0.00341754
0.00341765
0.00341774
0.00341781
0.00341787
0.00341791
0.00341794
0.00341796
0.00341795
0.00341795
0.00341795
0.00341795
0.00331025
0.00331027
0.00331031
0.00331037
0.00331043
0.00331052
0.00331062
0.00331072
0.00331081
0.00331091
0.00331099
0.00331104
0.00331108
0.00331108
0.00331104
0.00331096
0.00331086
0.00331071
0.00331039
0.00330991
0.00330931
0.0033086
0.00330777
0.00330701
0.00330604
0.00330496
0.00330391
0.00330299
0.00330223
0.00330165
0.00330153
0.00330162
0.00330192
0.0033024
0.003303
0.00330368
0.00330435
0.003305
0.00330564
0.00330623
0.00330668
0.00330713
0.00330755
0.00330792
0.00330819
0.00330837
0.00330854
0.0033087
0.00330884
0.00330895
0.00330904
0.00330911
0.00330916
0.0033092
0.00330922
0.00330924
0.00330923
0.00330923
0.00330923
0.00330923
0.00320787
0.0032079
0.00320794
0.003208
0.00320807
0.00320818
0.00320829
0.00320841
0.00320852
0.00320864
0.00320874
0.00320883
0.0032089
0.00320893
0.00320892
0.00320887
0.00320878
0.00320864
0.00320834
0.00320788
0.00320726
0.0032065
0.00320563
0.00320467
0.00320369
0.00320244
0.00320124
0.00320016
0.00319929
0.00319863
0.00319848
0.00319861
0.00319897
0.00319954
0.00320023
0.003201
0.00320161
0.00320235
0.00320301
0.00320366
0.00320424
0.00320477
0.00320522
0.00320558
0.00320584
0.00320605
0.00320625
0.00320642
0.00320656
0.00320667
0.00320675
0.00320681
0.00320686
0.00320689
0.00320691
0.00320692
0.00320691
0.0032069
0.0032069
0.0032069
0.00311134
0.00311137
0.00311142
0.00311148
0.00311157
0.00311168
0.00311181
0.00311195
0.00311209
0.00311223
0.00311237
0.00311248
0.00311258
0.00311266
0.00311269
0.00311266
0.00311259
0.00311246
0.00311223
0.00311182
0.00311123
0.00311047
0.00310959
0.00310908
0.00315404
0.00315276
0.00315146
0.00315029
0.00314935
0.00314864
0.00314849
0.00314863
0.00314901
0.0031496
0.00315033
0.00315112
0.00310532
0.00310563
0.00310639
0.00310712
0.00310777
0.00310834
0.0031088
0.00310913
0.0031094
0.00310965
0.00310986
0.00311003
0.00311016
0.00311026
0.00311034
0.00311039
0.00311042
0.00311045
0.00311047
0.00311047
0.00311046
0.00311045
0.00311044
0.00311044
0.00302018
0.00302022
0.00302027
0.00302034
0.00302044
0.00302056
0.00302071
0.00302086
0.00302103
0.0030212
0.00302137
0.00302152
0.00302167
0.00302179
0.00302187
0.0030219
0.00302186
0.00302176
0.00302159
0.00302129
0.00302079
0.00302012
0.00301982
0.00306246
0.00305943
0.00305833
0.00305696
0.00305572
0.00305469
0.00305389
0.00305362
0.00305364
0.0030539
0.00305442
0.00305512
0.00305586
0.00305839
0.0030149
0.00301537
0.00301613
0.00301681
0.00301738
0.00301783
0.00301816
0.00301843
0.00301868
0.00301889
0.00301905
0.00301917
0.00301926
0.00301932
0.00301936
0.00301939
0.00301941
0.00301941
0.00301941
0.00301939
0.00301938
0.00301937
0.00301937
0.00293396
0.002934
0.00293405
0.00293414
0.00293425
0.00293438
0.00293455
0.00293472
0.00293491
0.00293511
0.00293532
0.00293552
0.00293571
0.00293589
0.00293604
0.00293614
0.00293617
0.00293615
0.00293607
0.0029359
0.00293556
0.00293508
0.00293543
0.00297376
0.00297113
0.00299147
0.00299021
0.00298917
0.00298838
0.00298769
0.00298738
0.00298711
0.00298699
0.00298716
0.0029876
0.00296673
0.00296876
0.00292932
0.00292949
0.00293025
0.00293091
0.00293144
0.00293185
0.00293218
0.00293247
0.00293272
0.00293291
0.00293305
0.00293315
0.00293323
0.00293327
0.0029333
0.00293331
0.00293332
0.00293332
0.0029333
0.00293328
0.00293326
0.00293326
0.00293325
0.0028523
0.00285233
0.0028524
0.00285248
0.00285261
0.00285276
0.00285294
0.00285314
0.00285336
0.00285359
0.00285384
0.00285408
0.00285433
0.00285457
0.0028548
0.00285498
0.00285513
0.00285522
0.00285526
0.00285525
0.00285519
0.0028551
0.00285633
0.00289083
0.00288907
0.00290795
0.00290751
0.00290796
0.00290898
0.00290967
0.0029092
0.00290724
0.00290502
0.0029035
0.0029027
0.00288357
0.00288456
0.00284867
0.00284843
0.0028491
0.00284968
0.00285014
0.00285053
0.00285086
0.00285115
0.00285136
0.00285153
0.00285164
0.00285173
0.00285178
0.0028518
0.00285181
0.00285181
0.00285181
0.00285179
0.00285178
0.00285175
0.00285172
0.00285171
0.00285171
0.00277484
0.00277487
0.00277494
0.00277504
0.00277517
0.00277534
0.00277554
0.00277576
0.00277601
0.00277627
0.00277656
0.00277685
0.00277716
0.00277748
0.00277779
0.00277809
0.00277836
0.00277861
0.00277884
0.00277908
0.00277939
0.00277995
0.00278236
0.00281379
0.00281384
0.00283252
0.00283526
0.00284216
0.00285227
0.00286028
0.00285848
0.00284755
0.00283649
0.00282921
0.00282529
0.00280604
0.00280579
0.00277267
0.00277183
0.00277234
0.00277278
0.00277319
0.00277354
0.00277385
0.00277409
0.00277427
0.0027744
0.00277449
0.00277454
0.00277456
0.00277457
0.00277456
0.00277454
0.00277452
0.0027745
0.00277447
0.00277443
0.0027744
0.00277439
0.00277438
0.00270127
0.00270131
0.00270138
0.00270149
0.00270163
0.00270181
0.00270203
0.00270227
0.00270255
0.00270285
0.00270318
0.00270352
0.0027039
0.00270429
0.0027047
0.00270512
0.00270556
0.00270601
0.0027065
0.0027071
0.00270793
0.00270942
0.00271337
0.00274275
0.00274674
0.00276774
0.00278139
0.00281527
0.0028761
0.00293704
0.00291994
0.00284884
0.00279634
0.0027693
0.00275694
0.00273488
0.00273236
0.00270102
0.00269937
0.00269963
0.00269994
0.00270027
0.00270057
0.00270081
0.00270099
0.00270112
0.0027012
0.00270125
0.00270127
0.00270127
0.00270125
0.00270122
0.00270119
0.00270115
0.00270111
0.00270107
0.00270103
0.00270099
0.00270098
0.00270097
0.00263131
0.00263135
0.00263143
0.00263155
0.0026317
0.00263189
0.00263213
0.00263239
0.00263269
0.00263303
0.0026334
0.0026338
0.00263424
0.00263472
0.00263524
0.00263579
0.00263641
0.0026371
0.00263793
0.002639
0.00264055
0.00264332
0.00264918
0.00267788
0.00268927
0.00271742
0.00276673
0.00291932
0.00337414
0.00388864
0.00375429
0.00313614
0.00283226
0.00273368
0.00269949
0.00267069
0.00266393
0.00263348
0.00263084
0.00263079
0.00263091
0.00263111
0.00263129
0.00263144
0.00263156
0.00263162
0.00263166
0.00263167
0.00263165
0.00263162
0.00263157
0.00263152
0.00263146
0.00263141
0.00263135
0.0026313
0.00263125
0.00263121
0.00263119
0.00263118
0.0025647
0.00256475
0.00256483
0.00256495
0.00256511
0.00256532
0.00256557
0.00256586
0.00256618
0.00256655
0.00256697
0.00256742
0.00256793
0.00256849
0.00256912
0.00256982
0.00257063
0.0025716
0.00257281
0.00257447
0.00257691
0.00258129
0.00258934
0.00261896
0.00264215
0.00268669
0.00283546
0.00388214
0.0823837
0.857382
0.573873
0.0315187
0.00316017
0.00273601
0.00265342
0.00261366
0.00259993
0.00256976
0.00256594
0.0025655
0.00256536
0.00256539
0.00256545
0.00256549
0.00256552
0.00256552
0.0025655
0.00256546
0.0025654
0.00256533
0.00256526
0.00256518
0.0025651
0.00256503
0.00256496
0.0025649
0.00256484
0.0025648
0.00256477
0.00256476
0.00250122
0.00250126
0.00250135
0.00250148
0.00250165
0.00250186
0.00250213
0.00250243
0.00250278
0.00250318
0.00250363
0.00250414
0.00250471
0.00250536
0.0025061
0.00250695
0.00250796
0.00250921
0.00251085
0.00251315
0.0025166
0.00252279
0.00253312
0.00256518
0.00260328
0.00267474
0.00304648
0.0334018
0.863299
1.72412
1.77405
0.585931
0.0108868
0.0027784
0.00261462
0.00256209
0.00253954
0.00250955
0.00250435
0.00250343
0.00250302
0.00250286
0.00250277
0.0025027
0.00250264
0.00250257
0.00250249
0.0025024
0.0025023
0.00250219
0.00250209
0.00250198
0.00250188
0.00250179
0.00250171
0.00250164
0.00250157
0.00250151
0.00250148
0.00250147
0.00244063
0.00244068
0.00244077
0.0024409
0.00244108
0.00244131
0.00244158
0.0024419
0.00244228
0.0024427
0.00244319
0.00244374
0.00244437
0.0024451
0.00244595
0.00244694
0.00244816
0.0024497
0.00245176
0.00245472
0.00245922
0.0024672
0.00247957
0.00251474
0.00256811
0.00266563
0.00327584
0.0652443
0.792792
1.07964
1.43076
0.648069
0.0245195
0.00282074
0.00257383
0.00251316
0.00248211
0.00245229
0.00244571
0.00244429
0.00244362
0.00244326
0.00244302
0.00244284
0.00244268
0.00244254
0.00244239
0.00244225
0.0024421
0.00244196
0.00244182
0.00244169
0.00244157
0.00244147
0.00244137
0.00244128
0.00244121
0.00244115
0.00244111
0.0024411
0.00238276
0.00238282
0.0023829
0.00238304
0.00238322
0.00238346
0.00238374
0.00238407
0.00238447
0.00238492
0.00238543
0.00238602
0.00238671
0.00238751
0.00238845
0.00238958
0.00239099
0.0023928
0.00239527
0.00239885
0.00240435
0.00241387
0.00242795
0.00246597
0.00253222
0.00264332
0.00336408
0.0613914
0.507633
0.62313
0.0311079
0.00280656
0.00252707
0.00246428
0.00242689
0.00239754
0.00238968
0.00238779
0.00238689
0.00238635
0.00238596
0.00238567
0.00238542
0.0023852
0.00238499
0.0023848
0.00238461
0.00238444
0.00238427
0.00238411
0.00238397
0.00238385
0.00238374
0.00238365
0.00238356
0.0023835
0.00238346
0.00238345
0.00232743
0.00232748
0.00232757
0.00232771
0.0023279
0.00232814
0.00232843
0.00232877
0.00232917
0.00232964
0.00233018
0.00233081
0.00233154
0.0023324
0.00233343
0.00233467
0.00233625
0.0023383
0.00234112
0.00234523
0.00235161
0.0023623
0.00237778
0.00241761
0.0024937
0.00260484
0.00333804
0.0462478
0.321328
0.136357
0.563758
0.0361479
0.00276257
0.00247678
0.0024148
0.00237364
0.00234507
0.0023361
0.00233381
0.0023327
0.00233199
0.00233147
0.00233107
0.00233073
0.00233044
0.00233017
0.00232992
0.00232969
0.00232948
0.00232928
0.0023291
0.00232894
0.00232879
0.00232867
0.00232856
0.00232847
0.0023284
0.00232836
0.00232835
0.00227447
0.00227452
0.00227461
0.00227475
0.00227494
0.00227518
0.00227548
0.00227583
0.00227624
0.00227672
0.00227728
0.00227793
0.00227869
0.0022796
0.00228069
0.00228204
0.00228375
0.002286
0.00228911
0.00229361
0.00230069
0.0023122
0.00232891
0.00236943
0.00245206
0.00255919
0.00324249
0.0324911
0.225733
0.256796
0.463393
0.297858
0.0380796
0.00271257
0.00242585
0.00236477
0.00232218
0.00229458
0.00228474
0.00228212
0.00228085
0.00227999
0.00227935
0.00227884
0.00227842
0.00227805
0.00227772
0.00227743
0.00227715
0.0022769
0.00227668
0.00227647
0.00227628
0.00227613
0.00227599
0.00227587
0.00227577
0.00227569
0.00227564
0.00227563
0.00222373
0.00222378
0.00222387
0.00222401
0.0022242
0.00222444
0.00222474
0.00222509
0.00222551
0.002226
0.00222657
0.00222723
0.00222802
0.00222896
0.0022301
0.00223151
0.00223332
0.0022357
0.00223903
0.00224379
0.00225134
0.00226341
0.00228123
0.00232165
0.00240726
0.00251357
0.00311304
0.0228588
0.151415
0.26776
0.352004
0.196286
0.0375183
0.00265872
0.00237548
0.00231477
0.00227242
0.00224592
0.00223542
0.00223256
0.00223116
0.00223016
0.00222942
0.00222882
0.00222832
0.00222789
0.0022275
0.00222715
0.00222684
0.00222656
0.0022263
0.00222607
0.00222586
0.00222569
0.00222553
0.0022254
0.00222529
0.00222521
0.00222516
0.00222514
0.00217508
0.00217513
0.00217522
0.00217536
0.00217555
0.00217579
0.00217608
0.00217643
0.00217685
0.00217734
0.00217791
0.00217858
0.00217938
0.00218034
0.0021815
0.00218295
0.0021848
0.00218724
0.0021907
0.00219563
0.00220352
0.00221593
0.00223483
0.00227479
0.00235983
0.0024691
0.00297873
0.0167127
0.106638
0.191872
0.314904
0.139942
0.0358236
0.00260612
0.00232606
0.00226566
0.00222442
0.00219897
0.00218798
0.00218496
0.00218347
0.00218237
0.00218154
0.00218086
0.00218029
0.00217979
0.00217936
0.00217896
0.00217861
0.0021783
0.00217801
0.00217776
0.00217753
0.00217734
0.00217717
0.00217703
0.00217691
0.00217682
0.00217677
0.00217675
0.00212839
0.00212845
0.00212854
0.00212867
0.00212885
0.00212909
0.00212938
0.00212972
0.00213014
0.00213062
0.00213119
0.00213186
0.00213265
0.0021336
0.00213476
0.00213618
0.00213805
0.00214056
0.00214412
0.00214916
0.00215717
0.00216973
0.00218964
0.00222915
0.00231084
0.00242525
0.00286125
0.0131039
0.0803353
0.163982
0.276618
0.105162
0.0330809
0.00255389
0.00227875
0.00221799
0.00217825
0.00215374
0.00214235
0.00213922
0.00213765
0.00213646
0.00213556
0.00213482
0.0021342
0.00213364
0.00213316
0.00213273
0.00213234
0.00213199
0.00213168
0.00213141
0.00213116
0.00213096
0.00213077
0.00213062
0.0021305
0.0021304
0.00213035
0.00213033
0.00208355
0.00208361
0.00208369
0.00208382
0.002084
0.00208423
0.00208451
0.00208485
0.00208525
0.00208573
0.00208629
0.00208694
0.00208771
0.00208861
0.00208974
0.00209119
0.00209309
0.00209563
0.00209922
0.00210428
0.00211223
0.00212478
0.00214562
0.00218485
0.00226138
0.00237958
0.00277315
0.01139
0.076038
0.174219
0.197735
0.0834348
0.0301117
0.00250527
0.00223399
0.0021725
0.00213392
0.00211
0.00209841
0.00209519
0.00209354
0.00209229
0.00209134
0.00209058
0.00208991
0.00208932
0.00208879
0.00208832
0.0020879
0.00208753
0.0020872
0.0020869
0.00208664
0.00208642
0.00208623
0.00208607
0.00208593
0.00208583
0.00208577
0.00208575
0.00204046
0.00204051
0.00204059
0.00204072
0.00204089
0.00204111
0.00204139
0.00204171
0.0020421
0.00204256
0.00204309
0.00204371
0.00204444
0.00204532
0.00204646
0.00204791
0.0020498
0.00205233
0.00205589
0.00206091
0.00206868
0.00208109
0.00210265
0.00214188
0.00221248
0.00232849
0.00270479
0.012109
0.0847026
0.168987
0.149662
0.069168
0.0271907
0.00246375
0.00219261
0.00212937
0.00209146
0.00206794
0.00205614
0.00205281
0.00205113
0.00204985
0.00204884
0.00204801
0.00204732
0.00204669
0.00204614
0.00204564
0.0020452
0.0020448
0.00204444
0.00204413
0.00204386
0.00204362
0.00204342
0.00204325
0.00204311
0.00204301
0.00204294
0.00204292
0.001999
0.00199906
0.00199913
0.00199925
0.00199942
0.00199963
0.00199989
0.00200021
0.00200057
0.002001
0.00200148
0.00200206
0.00200278
0.00200368
0.00200479
0.00200621
0.00200807
0.00201055
0.00201405
0.002019
0.00202648
0.00203867
0.00206084
0.00209981
0.00216442
0.00227208
0.00267118
0.0136259
0.095751
0.1504
0.143757
0.0588836
0.0246559
0.00242776
0.00215336
0.00208896
0.00205057
0.0020273
0.0020155
0.00201212
0.0020103
0.002009
0.00200795
0.00200706
0.0020063
0.00200565
0.0020051
0.00200458
0.00200412
0.0020037
0.00200333
0.002003
0.00200271
0.00200246
0.00200225
0.00200208
0.00200193
0.00200183
0.00200176
0.00200173
0.00195911
0.00195916
0.00195923
0.00195934
0.0019595
0.0019597
0.00195995
0.00196024
0.00196058
0.00196096
0.00196142
0.001962
0.0019627
0.00196356
0.00196464
0.00196601
0.00196782
0.00197024
0.00197364
0.00197848
0.00198564
0.00199762
0.00202007
0.00205835
0.00211723
0.00221638
0.00264197
0.0150008
0.0941471
0.194612
0.142145
0.0528748
0.0224249
0.00239282
0.00211438
0.00205098
0.00201113
0.00198799
0.00197631
0.00197295
0.00197101
0.00196961
0.00196855
0.00196764
0.00196684
0.00196615
0.00196556
0.00196505
0.00196457
0.00196414
0.00196375
0.00196341
0.00196311
0.00196285
0.00196263
0.00196245
0.0019623
0.00196219
0.00196212
0.00196209
0.00192068
0.00192072
0.0019208
0.0019209
0.00192105
0.00192124
0.00192146
0.00192173
0.00192204
0.0019224
0.00192285
0.0019234
0.00192407
0.0019249
0.00192592
0.00192725
0.00192898
0.00193134
0.00193462
0.00193934
0.00194622
0.00195795
0.00198038
0.00201742
0.00207109
0.00217094
0.00259372
0.0165532
0.0933094
0.224837
0.144614
0.05441
0.0200569
0.00234725
0.00207475
0.00201505
0.00197303
0.00194995
0.00193849
0.00193516
0.00193316
0.0019317
0.00193054
0.00192963
0.00192881
0.00192809
0.00192747
0.00192694
0.00192646
0.00192602
0.00192563
0.00192527
0.00192496
0.0019247
0.00192447
0.00192429
0.00192414
0.00192402
0.00192395
0.00192392
0.00188364
0.00188369
0.00188375
0.00188385
0.00188399
0.00188416
0.00188435
0.00188459
0.00188488
0.00188524
0.00188567
0.00188619
0.00188682
0.0018876
0.00188858
0.00188984
0.00189151
0.0018938
0.00189694
0.00190158
0.00190817
0.00191963
0.00194187
0.00197733
0.00202661
0.00213744
0.00253531
0.0170722
0.0898078
0.269905
0.257731
0.0611824
0.0174103
0.00228975
0.002035
0.00198104
0.0019362
0.00191317
0.00190196
0.00189868
0.00189661
0.00189514
0.00189393
0.00189295
0.00189209
0.00189135
0.00189074
0.0018902
0.00188971
0.00188928
0.00188888
0.00188852
0.0018882
0.00188793
0.0018877
0.00188751
0.00188735
0.00188724
0.00188716
0.00188713
0.00184793
0.00184797
0.00184803
0.00184812
0.00184824
0.00184839
0.00184856
0.00184879
0.00184907