/*--------------------------------*- C++ -*----------------------------------*\
  =========                 |
  \\      /  F ield         | OpenFOAM: The Open Source CFD Toolbox
   \\    /   O peration     | Website:  https://openfoam.org
    \\  /    A nd           | Version:  12
     \\/     M anipulation  |
\*---------------------------------------------------------------------------*/
FoamFile
{
    format      ascii;
    class       volScalarField;
    location    "40";
    object      nut;
}
// * * * * * * * * * * * * * * * * * * * * * * * * * * * * * * * * * * * * * //

dimensions      [0 2 -1 0 0 0 0];

internalField   nonuniform List<scalar> 
16227
(
0.000978543
0.000978543
0.000978543
0.000978543
0.000978543
0.000978543
0.000978543
0.000978543
0.000978543
0.000978543
0.000978543
0.000978543
0.000978544
0.000978544
0.000978544
0.000978544
0.000978544
0.000978544
0.000978544
0.000978544
0.000978544
0.000978544
0.000978544
0.000978544
0.000978544
0.000978544
0.000978544
0.000978544
0.000978544
0.000978544
0.000978544
0.000978544
0.000978544
0.000978544
0.000978544
0.000978544
0.000978544
0.000978544
0.000978544
0.000978544
0.000978544
0.000978544
0.000978544
0.000978544
0.000978544
0.000978544
0.000978544
0.000978544
0.000978544
0.000978544
0.000978544
0.000978543
0.000978543
0.000978543
0.000978543
0.000978543
0.000978543
0.000978543
0.000978543
0.000978543
0.000972834
0.000972834
0.000972834
0.000972834
0.000972834
0.000972834
0.000972834
0.000972834
0.000972834
0.000972834
0.000972835
0.000972835
0.000972836
0.000972836
0.000972837
0.000972837
0.000972837
0.000972837
0.000972837
0.000972837
0.000972837
0.000972837
0.000972837
0.000972837
0.000972837
0.000972837
0.000972837
0.000972837
0.000972837
0.000972836
0.000972837
0.000972837
0.000972837
0.000972837
0.000972837
0.000972837
0.000972836
0.000972836
0.000972836
0.000972836
0.000972836
0.000972836
0.000972836
0.000972836
0.000972836
0.000972836
0.000972836
0.000972836
0.000972836
0.000972836
0.000972836
0.000972836
0.000972835
0.000972835
0.000972834
0.000972834
0.000972834
0.000972834
0.000972834
0.000972834
0.000967494
0.000967494
0.000967494
0.000967494
0.000967494
0.000967495
0.000967495
0.000967495
0.000967495
0.000967495
0.000967495
0.000967495
0.000967497
0.000967498
0.000967498
0.000967498
0.000967498
0.000967498
0.000967498
0.000967498
0.000967498
0.000967498
0.000967498
0.000967498
0.000967498
0.000967498
0.000967498
0.000967498
0.000967498
0.000967497
0.000967498
0.000967498
0.000967498
0.000967498
0.000967498
0.000967498
0.000967498
0.000967498
0.000967498
0.000967498
0.000967498
0.000967498
0.000967498
0.000967498
0.000967498
0.000967498
0.000967498
0.000967498
0.000967498
0.000967497
0.000967497
0.000967495
0.000967495
0.000967494
0.000967494
0.000967494
0.000967495
0.000967494
0.000967494
0.000967494
0.000962481
0.000962481
0.000962481
0.000962481
0.000962481
0.000962482
0.000962482
0.000962482
0.000962482
0.000962482
0.000962482
0.000962483
0.000962485
0.000962486
0.000962486
0.000962486
0.000962486
0.000962486
0.000962486
0.000962485
0.000962486
0.000962486
0.000962486
0.000962486
0.000962486
0.000962486
0.000962486
0.000962486
0.000962486
0.000962485
0.000962485
0.000962486
0.000962486
0.000962486
0.000962486
0.000962486
0.000962486
0.000962486
0.000962486
0.000962486
0.000962486
0.000962486
0.000962486
0.000962486
0.000962486
0.000962486
0.000962486
0.000962486
0.000962486
0.000962485
0.000962484
0.000962482
0.000962481
0.000962482
0.000962482
0.000962482
0.000962482
0.000962481
0.000962481
0.000962481
0.000957759
0.000957759
0.000957759
0.000957759
0.00095776
0.00095776
0.000957761
0.00095776
0.00095776
0.00095776
0.000957761
0.000957761
0.000957764
0.000957765
0.000957765
0.000957765
0.000957766
0.000957765
0.000957763
0.000957762
0.000957764
0.000957765
0.000957765
0.000957765
0.000957765
0.000957765
0.000957765
0.000957764
0.000957764
0.000957763
0.000957764
0.000957764
0.000957764
0.000957764
0.000957764
0.000957764
0.000957765
0.000957765
0.000957765
0.000957765
0.000957765
0.000957765
0.000957765
0.000957765
0.000957765
0.000957765
0.000957765
0.000957765
0.000957765
0.000957764
0.000957762
0.000957761
0.00095776
0.00095776
0.00095776
0.000957761
0.00095776
0.00095776
0.00095776
0.000957759
0.000953299
0.000953299
0.000953299
0.000953299
0.000953299
0.0009533
0.0009533
0.0009533
0.0009533
0.0009533
0.0009533
0.0009533
0.000953302
0.000953305
0.000953306
0.000953306
0.000953306
0.000953305
0.000953302
0.000953302
0.000953304
0.000953305
0.000953305
0.000953305
0.000953305
0.000953304
0.000953304
0.000953304
0.000953304
0.000953303
0.000953303
0.000953304
0.000953304
0.000953304
0.000953304
0.000953304
0.000953304
0.000953305
0.000953305
0.000953305
0.000953305
0.000953305
0.000953305
0.000953306
0.000953306
0.000953306
0.000953306
0.000953306
0.000953306
0.000953304
0.000953302
0.0009533
0.0009533
0.000953301
0.000953301
0.000953301
0.0009533
0.0009533
0.0009533
0.0009533
0.000949074
0.000949074
0.000949074
0.000949074
0.000949074
0.000949075
0.000949075
0.000949075
0.000949075
0.000949075
0.000949075
0.000949075
0.000949076
0.00094908
0.000949081
0.000949082
0.000949081
0.000949078
0.000949077
0.000949077
0.00094908
0.00094908
0.00094908
0.00094908
0.000949079
0.000949079
0.000949079
0.000949078
0.000949078
0.000949077
0.000949078
0.000949078
0.000949078
0.000949078
0.000949079
0.000949079
0.000949079
0.00094908
0.00094908
0.000949081
0.000949081
0.000949081
0.000949082
0.000949082
0.000949082
0.000949082
0.000949082
0.000949082
0.000949082
0.000949078
0.000949077
0.000949076
0.000949076
0.000949077
0.000949077
0.000949077
0.000949077
0.000949076
0.000949076
0.000949076
0.000945062
0.000945062
0.000945062
0.000945062
0.000945062
0.000945063
0.000945064
0.000945064
0.000945063
0.000945063
0.000945063
0.000945063
0.000945064
0.000945065
0.000945069
0.000945071
0.00094507
0.000945066
0.000945065
0.000945065
0.000945068
0.000945068
0.000945068
0.000945067
0.000945067
0.000945066
0.000945066
0.000945065
0.000945065
0.000945063
0.000945065
0.000945065
0.000945065
0.000945066
0.000945066
0.000945067
0.000945067
0.000945068
0.000945069
0.000945069
0.00094507
0.00094507
0.000945071
0.000945071
0.000945072
0.000945072
0.000945072
0.000945072
0.000945071
0.000945068
0.000945066
0.000945066
0.000945066
0.000945067
0.000945067
0.000945067
0.000945066
0.000945066
0.000945066
0.000945066
0.000941244
0.000941244
0.000941245
0.000941244
0.000941245
0.000941245
0.000941246
0.000941246
0.000941246
0.000941246
0.000941245
0.000941245
0.000941245
0.000941247
0.000941252
0.000941253
0.000941252
0.000941248
0.000941247
0.000941247
0.000941249
0.00094125
0.000941249
0.000941248
0.000941247
0.000941247
0.000941246
0.000941246
0.000941245
0.000941244
0.000941245
0.000941245
0.000941246
0.000941246
0.000941247
0.000941248
0.000941249
0.00094125
0.000941251
0.000941252
0.000941253
0.000941253
0.000941254
0.000941255
0.000941255
0.000941256
0.000941256
0.000941255
0.000941252
0.00094125
0.000941249
0.00094125
0.00094125
0.000941251
0.000941251
0.000941251
0.00094125
0.00094125
0.00094125
0.00094125
0.000937604
0.000937604
0.000937604
0.000937604
0.000937604
0.000937604
0.000937605
0.000937605
0.000937606
0.000937606
0.000937605
0.000937605
0.000937605
0.000937607
0.000937611
0.000937612
0.000937608
0.000937606
0.000937605
0.000937605
0.000937608
0.000937608
0.000937607
0.000937606
0.000937605
0.000937604
0.000937603
0.000937602
0.000937602
0.0009376
0.000937601
0.000937602
0.000937603
0.000937604
0.000937605
0.000937606
0.000937607
0.000937608
0.00093761
0.000937611
0.000937612
0.000937613
0.000937615
0.000937616
0.000937616
0.000937617
0.000937618
0.000937616
0.000937613
0.000937611
0.000937611
0.000937611
0.000937612
0.000937612
0.000937613
0.000937613
0.000937612
0.000937612
0.000937612
0.000937612
0.000934125
0.000934125
0.000934125
0.000934125
0.000934126
0.000934126
0.000934127
0.000934127
0.000934127
0.000934127
0.000934127
0.000934126
0.000934126
0.000934127
0.000934129
0.000934133
0.000934129
0.000934127
0.000934126
0.000934126
0.000934127
0.000934128
0.000934127
0.000934125
0.000934124
0.000934123
0.000934122
0.000934121
0.00093412
0.000934118
0.00093412
0.00093412
0.000934121
0.000934122
0.000934124
0.000934126
0.000934127
0.000934129
0.000934131
0.000934133
0.000934134
0.000934136
0.000934138
0.000934139
0.00093414
0.000934141
0.00093414
0.000934138
0.000934136
0.000934135
0.000934135
0.000934136
0.000934136
0.000934137
0.000934137
0.000934137
0.000934136
0.000934136
0.000934136
0.000934136
0.000930796
0.000930796
0.000930796
0.000930796
0.000930797
0.000930797
0.000930798
0.000930798
0.000930798
0.000930798
0.000930798
0.000930798
0.000930797
0.000930797
0.000930799
0.000930802
0.000930799
0.000930797
0.000930796
0.000930795
0.000930795
0.000930796
0.000930795
0.000930794
0.000930792
0.00093079
0.000930789
0.000930788
0.000930786
0.000930785
0.000930786
0.000930787
0.000930789
0.00093079
0.000930792
0.000930794
0.000930796
0.000930799
0.000930801
0.000930803
0.000930806
0.000930808
0.00093081
0.000930812
0.000930813
0.000930813
0.000930811
0.000930811
0.00093081
0.000930809
0.000930809
0.00093081
0.00093081
0.000930811
0.000930811
0.000930811
0.000930811
0.00093081
0.00093081
0.00093081
0.000927605
0.000927605
0.000927605
0.000927605
0.000927605
0.000927606
0.000927606
0.000927607
0.000927607
0.000927607
0.000927607
0.000927607
0.000927606
0.000927605
0.000927606
0.000927606
0.000927606
0.000927605
0.000927604
0.000927602
0.000927601
0.000927602
0.000927601
0.000927599
0.000927597
0.000927595
0.000927593
0.000927591
0.00092759
0.000927588
0.00092759
0.000927591
0.000927593
0.000927595
0.000927597
0.0009276
0.000927603
0.000927606
0.000927609
0.000927612
0.000927615
0.000927618
0.00092762
0.000927622
0.000927624
0.000927624
0.000927622
0.000927622
0.000927621
0.000927621
0.000927621
0.000927622
0.000927622
0.000927623
0.000927623
0.000927623
0.000927623
0.000927622
0.000927622
0.000927622
0.000924541
0.000924541
0.000924541
0.000924541
0.000924541
0.000924542
0.000924542
0.000924543
0.000924543
0.000924543
0.000924543
0.000924543
0.000924542
0.000924542
0.000924541
0.000924541
0.000924542
0.000924541
0.000924539
0.000924537
0.000924535
0.000924536
0.000924534
0.000924531
0.000924529
0.000924526
0.000924524
0.000924522
0.00092452
0.000924518
0.00092452
0.000924522
0.000924523
0.000924526
0.000924529
0.000924533
0.000924536
0.00092454
0.000924544
0.000924548
0.000924551
0.000924555
0.000924558
0.00092456
0.000924561
0.000924561
0.000924561
0.000924561
0.00092456
0.00092456
0.000924561
0.000924561
0.000924562
0.000924563
0.000924563
0.000924563
0.000924563
0.000924562
0.000924563
0.000924562
0.000921595
0.000921595
0.000921595
0.000921595
0.000921595
0.000921596
0.000921597
0.000921597
0.000921598
0.000921598
0.000921598
0.000921597
0.000921597
0.000921596
0.000921595
0.000921595
0.000921596
0.000921595
0.000921592
0.00092159
0.000921587
0.000921588
0.000921585
0.000921582
0.000921578
0.000921575
0.000921572
0.00092157
0.000921568
0.000921566
0.000921568
0.000921569
0.000921572
0.000921575
0.000921579
0.000921583
0.000921588
0.000921593
0.000921597
0.000921602
0.000921606
0.00092161
0.000921614
0.000921616
0.000921616
0.000921617
0.000921618
0.000921619
0.000921619
0.000921618
0.000921619
0.00092162
0.000921621
0.000921621
0.000921622
0.000921622
0.000921621
0.000921621
0.000921621
0.000921621
0.000918758
0.000918758
0.000918759
0.000918759
0.000918759
0.00091876
0.000918761
0.000918761
0.000918762
0.000918762
0.000918762
0.000918762
0.000918761
0.000918761
0.00091876
0.00091876
0.00091876
0.000918759
0.000918756
0.000918753
0.000918749
0.000918749
0.000918746
0.000918742
0.000918737
0.000918733
0.00091873
0.000918727
0.000918725
0.000918723
0.000918725
0.000918727
0.00091873
0.000918734
0.000918738
0.000918744
0.000918749
0.000918755
0.000918761
0.000918766
0.000918772
0.000918776
0.00091878
0.000918782
0.000918783
0.000918784
0.000918786
0.000918786
0.000918786
0.000918787
0.000918788
0.000918789
0.00091879
0.00091879
0.000918791
0.000918791
0.00091879
0.00091879
0.00091879
0.00091879
0.000916025
0.000916025
0.000916025
0.000916025
0.000916026
0.000916026
0.000916027
0.000916028
0.000916029
0.000916029
0.000916029
0.000916029
0.000916029
0.000916028
0.000916027
0.000916027
0.000916028
0.000916025
0.000916022
0.000916018
0.000916014
0.000916011
0.000916009
0.000916005
0.000916
0.000915995
0.000915991
0.000915987
0.000915985
0.000915982
0.000915984
0.000915987
0.000915991
0.000915995
0.000916001
0.000916007
0.000916014
0.000916021
0.000916027
0.000916034
0.00091604
0.000916045
0.000916049
0.00091605
0.000916053
0.000916055
0.000916057
0.000916057
0.000916058
0.000916059
0.00091606
0.000916061
0.000916062
0.000916062
0.000916062
0.000916062
0.000916062
0.000916062
0.000916062
0.000916062
0.000913386
0.000913386
0.000913387
0.000913387
0.000913388
0.000913389
0.00091339
0.000913391
0.000913391
0.000913392
0.000913392
0.000913392
0.000913392
0.000913392
0.000913391
0.000913391
0.000913391
0.000913389
0.000913385
0.000913381
0.000913376
0.000913371
0.00091337
0.000913365
0.000913359
0.000913353
0.000913348
0.000913344
0.000913341
0.000913338
0.000913341
0.000913344
0.000913348
0.000913353
0.000913359
0.000913367
0.000913375
0.000913383
0.000913391
0.000913398
0.000913405
0.00091341
0.000913412
0.000913416
0.000913419
0.000913422
0.000913424
0.000913425
0.000913426
0.000913427
0.000913428
0.000913429
0.00091343
0.00091343
0.000913431
0.00091343
0.00091343
0.00091343
0.00091343
0.00091343
0.000910837
0.000910837
0.000910838
0.000910838
0.000910839
0.00091084
0.000910842
0.000910843
0.000910844
0.000910845
0.000910845
0.000910845
0.000910845
0.000910845
0.000910845
0.000910845
0.000910845
0.000910843
0.000910839
0.000910834
0.000910829
0.000910824
0.000910821
0.000910816
0.00091081
0.000910803
0.000910798
0.000910794
0.00091079
0.000910787
0.000910789
0.000910793
0.000910797
0.000910803
0.00091081
0.000910818
0.000910827
0.000910836
0.000910844
0.000910853
0.00091086
0.000910866
0.000910868
0.000910873
0.000910877
0.00091088
0.000910881
0.000910883
0.000910884
0.000910886
0.000910887
0.000910887
0.000910888
0.000910888
0.000910889
0.000910889
0.000910888
0.000910888
0.000910888
0.000910887
0.000908372
0.000908372
0.000908373
0.000908373
0.000908374
0.000908376
0.000908377
0.000908379
0.00090838
0.000908381
0.000908382
0.000908383
0.000908383
0.000908383
0.000908383
0.000908383
0.000908384
0.000908382
0.000908379
0.000908374
0.000908368
0.000908363
0.000908358
0.000908355
0.000908349
0.000908343
0.000908338
0.000908333
0.00090833
0.000908327
0.000908329
0.000908331
0.000908335
0.000908341
0.000908348
0.000908356
0.000908365
0.000908375
0.000908384
0.000908392
0.0009084
0.000908405
0.00090841
0.000908415
0.00090842
0.000908423
0.000908424
0.000908426
0.000908428
0.000908429
0.00090843
0.00090843
0.000908431
0.000908431
0.000908431
0.000908431
0.000908431
0.00090843
0.00090843
0.00090843
0.000905986
0.000905986
0.000905987
0.000905988
0.000905989
0.00090599
0.000905992
0.000905994
0.000905996
0.000905997
0.000905999
0.000906
0.000906001
0.000906001
0.000906002
0.000906002
0.000906002
0.000906002
0.000905999
0.000905996
0.000905991
0.000905986
0.000905981
0.000905981
0.000905977
0.000905972
0.000905968
0.000905965
0.000905962
0.000905959
0.000905959
0.00090596
0.000905962
0.000905965
0.000905971
0.000905978
0.000905987
0.000905997
0.000906005
0.000906014
0.00090602
0.000906026
0.000906033
0.000906039
0.000906043
0.000906045
0.000906047
0.000906049
0.000906051
0.000906052
0.000906053
0.000906053
0.000906054
0.000906054
0.000906054
0.000906053
0.000906052
0.000906052
0.000906052
0.000906052
0.000903674
0.000903674
0.000903675
0.000903676
0.000903677
0.000903679
0.000903681
0.000903683
0.000903685
0.000903688
0.00090369
0.000903692
0.000903693
0.000903695
0.000903696
0.000903696
0.000903698
0.000903699
0.000903698
0.000903696
0.000903693
0.000903691
0.00090369
0.000903694
0.000903695
0.000903695
0.000903696
0.000903696
0.000903696
0.000903692
0.00090369
0.000903686
0.000903682
0.00090368
0.00090368
0.000903684
0.00090369
0.000903698
0.000903706
0.000903714
0.00090372
0.000903726
0.000903733
0.000903738
0.000903742
0.000903744
0.000903746
0.000903748
0.00090375
0.00090375
0.000903751
0.000903751
0.000903751
0.000903751
0.000903751
0.00090375
0.000903749
0.000903749
0.000903748
0.000903748
0.000901431
0.000901432
0.000901433
0.000901434
0.000901435
0.000901437
0.00090144
0.000901443
0.000901445
0.000901448
0.000901451
0.000901454
0.000901456
0.000901459
0.000901461
0.000901464
0.000901466
0.00090147
0.000901472
0.000901473
0.000901474
0.000901478
0.000901485
0.000901496
0.000901513
0.000901523
0.000901536
0.000901548
0.000901555
0.000901552
0.000901546
0.000901532
0.000901515
0.000901499
0.000901488
0.000901483
0.000901473
0.000901478
0.000901482
0.000901488
0.000901494
0.0009015
0.000901506
0.00090151
0.000901513
0.000901515
0.000901517
0.000901518
0.00090152
0.00090152
0.00090152
0.00090152
0.00090152
0.000901519
0.000901518
0.000901518
0.000901517
0.000901516
0.000901516
0.000901515
0.000899255
0.000899255
0.000899256
0.000899257
0.000899259
0.000899262
0.000899265
0.000899268
0.000899271
0.000899275
0.000899279
0.000899283
0.000899287
0.000899291
0.000899295
0.000899299
0.000899304
0.00089931
0.000899317
0.000899324
0.000899334
0.000899349
0.000899372
0.000899419
0.00090043
0.000900454
0.000900479
0.000900503
0.000900519
0.000900523
0.000900515
0.000900492
0.000900461
0.000900429
0.000900405
0.000900389
0.00089936
0.000899336
0.000899335
0.000899337
0.00089934
0.000899344
0.000899348
0.00089935
0.000899352
0.000899354
0.000899355
0.000899357
0.000899357
0.000899357
0.000899356
0.000899356
0.000899355
0.000899354
0.000899353
0.000899352
0.000899351
0.00089935
0.000899349
0.000899349
0.000897141
0.000897141
0.000897142
0.000897144
0.000897146
0.000897149
0.000897152
0.000897156
0.00089716
0.000897165
0.00089717
0.000897175
0.00089718
0.000897187
0.000897193
0.0008972
0.000897208
0.000897219
0.000897232
0.000897251
0.000897274
0.00089731
0.000897378
0.000898382
0.000898377
0.00089846
0.000898542
0.000898624
0.000898688
0.000898709
0.000898683
0.000898611
0.000898513
0.000898416
0.000898337
0.000898282
0.000898308
0.000897286
0.000897266
0.000897259
0.000897257
0.000897257
0.000897257
0.000897257
0.000897258
0.000897258
0.000897259
0.000897259
0.000897258
0.000897257
0.000897256
0.000897255
0.000897253
0.000897252
0.00089725
0.000897249
0.000897247
0.000897246
0.000897246
0.000897245
0.000895085
0.000895086
0.000895087
0.000895089
0.000895091
0.000895095
0.000895099
0.000895103
0.000895108
0.000895114
0.00089512
0.000895127
0.000895134
0.000895143
0.000895153
0.000895164
0.000895177
0.000895195
0.000895219
0.000895252
0.000895299
0.000895369
0.000895506
0.000896431
0.00089651
0.000897109
0.000897273
0.000897465
0.000897635
0.000897718
0.000897681
0.000897525
0.000897307
0.000897093
0.000896919
0.000896321
0.000896289
0.00089532
0.000895275
0.000895254
0.000895241
0.000895234
0.00089523
0.000895227
0.000895225
0.000895224
0.000895223
0.000895222
0.00089522
0.000895218
0.000895216
0.000895214
0.000895212
0.000895209
0.000895208
0.000895206
0.000895204
0.000895203
0.000895202
0.000895201
0.000893086
0.000893086
0.000893088
0.00089309
0.000893093
0.000893096
0.000893101
0.000893106
0.000893112
0.000893119
0.000893127
0.000893136
0.000893146
0.000893157
0.000893171
0.000893188
0.000893209
0.000893236
0.000893274
0.000893329
0.000893413
0.000893542
0.000893786
0.000894662
0.000894906
0.00089563
0.000896035
0.000896643
0.000897283
0.000897697
0.000897641
0.000897108
0.000896399
0.000895766
0.000895289
0.000894545
0.000894409
0.000893448
0.00089336
0.000893319
0.000893291
0.000893274
0.000893264
0.000893257
0.000893253
0.000893249
0.000893246
0.000893242
0.000893239
0.000893236
0.000893233
0.000893229
0.000893227
0.000893224
0.000893221
0.000893219
0.000893217
0.000893215
0.000893214
0.000893214
0.000891139
0.00089114
0.000891141
0.000891144
0.000891147
0.000891151
0.000891156
0.000891163
0.00089117
0.000891178
0.000891187
0.000891198
0.000891211
0.000891227
0.000891245
0.000891269
0.0008913
0.000891341
0.0008914
0.000891487
0.000891624
0.000891849
0.000892251
0.00089314
0.000893738
0.000894814
0.00089593
0.000897938
0.000900478
0.000902393
0.000902087
0.000899764
0.00089723
0.000895368
0.000894181
0.000893016
0.000892706
0.000891678
0.000891522
0.000891454
0.000891405
0.000891376
0.000891358
0.000891345
0.000891337
0.00089133
0.000891324
0.000891318
0.000891313
0.000891308
0.000891304
0.000891299
0.000891296
0.000891292
0.000891289
0.000891286
0.000891284
0.000891282
0.000891281
0.00089128
0.000889243
0.000889243
0.000889245
0.000889248
0.000889252
0.000889256
0.000889262
0.000889269
0.000889277
0.000889287
0.000889298
0.000889312
0.000889328
0.000889348
0.000889373
0.000889405
0.000889448
0.000889508
0.000889595
0.000889728
0.000889942
0.000890313
0.00089094
0.000891952
0.000893283
0.000895159
0.000898527
0.000905849
0.000918176
0.000930126
0.000927001
0.000913291
0.00090271
0.000896895
0.00089396
0.000891885
0.00089121
0.000890021
0.000889761
0.000889656
0.00088958
0.000889537
0.000889508
0.000889489
0.000889475
0.000889463
0.000889454
0.000889446
0.000889439
0.000889432
0.000889426
0.000889421
0.000889416
0.000889411
0.000889408
0.000889404
0.000889401
0.000889399
0.000889398
0.000889397
0.000887394
0.000887395
0.000887397
0.0008874
0.000887404
0.000887409
0.000887416
0.000887424
0.000887433
0.000887445
0.000887458
0.000887474
0.000887494
0.00088752
0.000887552
0.000887594
0.000887652
0.000887735
0.000887859
0.000888054
0.000888372
0.000888949
0.000889878
0.000891195
0.000893895
0.000897495
0.000907783
0.000937755
0.00102178
0.000835922
0.000932636
0.000979631
0.000922
0.000902305
0.000895051
0.000891339
0.000889926
0.000888485
0.000888076
0.000887923
0.000887816
0.000887754
0.000887713
0.000887684
0.000887664
0.000887648
0.000887635
0.000887623
0.000887614
0.000887605
0.000887598
0.000887591
0.000887585
0.000887579
0.000887575
0.000887571
0.000887567
0.000887565
0.000887563
0.000887562
0.000885592
0.000885592
0.000885594
0.000885598
0.000885602
0.000885608
0.000885615
0.000885624
0.000885635
0.000885648
0.000885664
0.000885683
0.000885707
0.000885738
0.000885779
0.000885833
0.00088591
0.00088602
0.000886189
0.000886461
0.000886911
0.000887755
0.000889054
0.00089092
0.000895816
0.00090285
0.000932267
0.00103483
0.0046187
0.0174196
0.0159315
0.00250769
0.00099976
0.000914387
0.00089763
0.000891488
0.000888814
0.000887069
0.000886461
0.000886249
0.000886106
0.000886023
0.000885968
0.000885929
0.000885901
0.00088588
0.000885863
0.000885848
0.000885836
0.000885825
0.000885815
0.000885807
0.0008858
0.000885793
0.000885788
0.000885783
0.000885779
0.000885776
0.000885774
0.000885773
0.000883832
0.000883833
0.000883835
0.000883839
0.000883844
0.00088385
0.000883858
0.000883868
0.00088388
0.000883895
0.000883913
0.000883935
0.000883964
0.000884002
0.000884051
0.00088412
0.000884217
0.00088436
0.000884581
0.000884943
0.000885547
0.000886696
0.000888388
0.00089105
0.000898812
0.000911273
0.000984763
0.00260917
0.0163923
0.0117466
0.0186439
0.0175524
0.00151795
0.000934188
0.000900995
0.000892138
0.000887786
0.000885752
0.000884907
0.000884624
0.000884446
0.00088434
0.00088427
0.00088422
0.000884185
0.000884157
0.000884136
0.000884118
0.000884102
0.000884089
0.000884078
0.000884067
0.000884059
0.000884051
0.000884045
0.00088404
0.000884035
0.000884032
0.00088403
0.000884028
0.000882114
0.000882115
0.000882117
0.000882121
0.000882126
0.000882133
0.000882142
0.000882153
0.000882166
0.000882183
0.000882204
0.00088223
0.000882263
0.000882308
0.000882367
0.00088245
0.00088257
0.000882749
0.000883028
0.000883489
0.000884262
0.000885727
0.000887785
0.000891368
0.000902109
0.000919964
0.0010399
0.00493579
0.0149057
0.00418519
0.0179616
0.0189512
0.00358258
0.000955281
0.000903529
0.000892792
0.00088675
0.000884497
0.000883398
0.00088304
0.000882829
0.000882701
0.000882615
0.000882555
0.000882511
0.000882478
0.000882451
0.000882429
0.000882411
0.000882395
0.000882382
0.00088237
0.00088236
0.000882351
0.000882344
0.000882338
0.000882333
0.000882329
0.000882326
0.000882325
0.000880436
0.000880437
0.000880439
0.000880443
0.000880449
0.000880456
0.000880466
0.000880478
0.000880492
0.000880511
0.000880534
0.000880563
0.000880602
0.000880653
0.000880724
0.000880822
0.000880966
0.000881183
0.000881522
0.000882082
0.000883031
0.000884787
0.000887176
0.000891659
0.000905013
0.000925965
0.00106699
0.00548561
0.0140176
0.0125659
0.00393335
0.000965118
0.000904453
0.00089303
0.000885644
0.000883268
0.000881922
0.00088149
0.00088125
0.000881101
0.000881
0.000880929
0.000880878
0.000880838
0.000880806
0.000880781
0.000880759
0.000880741
0.000880725
0.000880712
0.0008807
0.00088069
0.000880682
0.000880675
0.00088067
0.000880666
0.000880663
0.000880662
0.000878795
0.000878796
0.000878799
0.000878803
0.000878809
0.000878817
0.000878827
0.00087884
0.000878856
0.000878876
0.000878902
0.000878935
0.000878978
0.000879037
0.000879118
0.000879232
0.0008794
0.000879654
0.000880054
0.000880709
0.000881829
0.00088383
0.000886534
0.000891753
0.000907251
0.000928725
0.00107386
0.00480781
0.0124218
0.000333369
0.00378119
0.00400258
0.000968366
0.000904314
0.000892732
0.000884461
0.000882045
0.000880471
0.000879972
0.000879707
0.000879539
0.000879425
0.000879343
0.000879283
0.000879237
0.000879201
0.000879171
0.000879146
0.000879125
0.000879108
0.000879092
0.000879079
0.000879068
0.000879059
0.000879051
0.000879045
0.000879041
0.000879038
0.000879036
0.000877191
0.000877192
0.000877195
0.000877199
0.000877206
0.000877214
0.000877224
0.000877238
0.000877255
0.000877277
0.000877305
0.000877342
0.00087739
0.000877456
0.000877547
0.000877677
0.000877869
0.000878159
0.000878615
0.000879354
0.000880632
0.000882834
0.000885855
0.000891611
0.000908752
0.000929993
0.00106843
0.0040936
0.0101425
0.00172414
0.00305397
0.00373609
0.00390689
0.000969947
0.00090369
0.000891948
0.000883213
0.000880813
0.000879039
0.000878481
0.000878197
0.000878011
0.000877884
0.000877793
0.000877726
0.000877674
0.000877632
0.000877598
0.00087757
0.000877547
0.000877527
0.000877509
0.000877495
0.000877483
0.000877472
0.000877464
0.000877457
0.000877452
0.000877449
0.000877448
0.000875622
0.000875623
0.000875626
0.00087563
0.000875637
0.000875645
0.000875656
0.000875671
0.000875689
0.000875712
0.000875743
0.000875783
0.000875836
0.000875908
0.00087601
0.000876154
0.000876368
0.000876691
0.0008772
0.00087801
0.000879423
0.00088179
0.000885147
0.000891292
0.000909478
0.000931144
0.00105642
0.0034712
0.0085542
0.00298545
0.00314405
0.00327868
0.00374897
0.000970307
0.000902848
0.000890796
0.000881926
0.00087957
0.000877623
0.000877016
0.000876717
0.000876515
0.000876378
0.000876277
0.000876203
0.000876144
0.000876098
0.00087606
0.000876029
0.000876003
0.00087598
0.000875961
0.000875945
0.000875932
0.000875921
0.000875911
0.000875904
0.000875899
0.000875895
0.000875893
0.000874085
0.000874086
0.000874089
0.000874094
0.000874101
0.000874109
0.000874121
0.000874136
0.000874156
0.00087418
0.000874213
0.000874256
0.000874313
0.000874392
0.000874503
0.000874661
0.000874895
0.000875245
0.000875801
0.000876673
0.000878193
0.000880699
0.00088442
0.000890883
0.00090947
0.000932402
0.00104285
0.00298131
0.00738086
0.00308585
0.00337513
0.00289203
0.00359661
0.000970638
0.000901849
0.000889442
0.000880632
0.000878318
0.000876224
0.000875577
0.000875265
0.00087505
0.000874902
0.000874793
0.000874712
0.000874648
0.000874597
0.000874555
0.000874521
0.000874492
0.000874467
0.000874447
0.000874429
0.000874414
0.000874402
0.000874392
0.000874384
0.000874378
0.000874374
0.000874372
0.000872581
0.000872582
0.000872585
0.00087259
0.000872596
0.000872606
0.000872618
0.000872633
0.000872653
0.00087268
0.000872714
0.000872759
0.000872821
0.000872905
0.000873024
0.000873193
0.000873445
0.000873822
0.00087442
0.000875343
0.000876939
0.000879561
0.000883666
0.000890443
0.00090889
0.000933626
0.00103174
0.00264082
0.00655185
0.00339778
0.00349786
0.00254139
0.00343396
0.000970446
0.000901026
0.00088807
0.000879363
0.000877063
0.000874844
0.000874165
0.00087384
0.000873612
0.000873457
0.00087334
0.000873252
0.000873183
0.000873127
0.000873082
0.000873045
0.000873013
0.000872986
0.000872964
0.000872945
0.000872929
0.000872915
0.000872905
0.000872896
0.00087289
0.000872886
0.000872884
0.000871107
0.000871108
0.000871111
0.000871116
0.000871123
0.000871132
0.000871144
0.000871161
0.000871181
0.000871209
0.000871244
0.000871292
0.000871357
0.000871445
0.000871571
0.000871752
0.000872022
0.000872423
0.000873054
0.000874021
0.000875666
0.000878381
0.000882871
0.000889998
0.000907911
0.000934226
0.00102584
0.00246395
0.00652411
0.00404787
0.0029022
0.00230611
0.0032759
0.000970503
0.000900415
0.000886773
0.000878153
0.000875805
0.000873484
0.000872777
0.00087244
0.000872201
0.000872038
0.000871915
0.000871822
0.000871747
0.000871688
0.000871639
0.000871598
0.000871564
0.000871536
0.000871511
0.000871491
0.000871473
0.000871459
0.000871448
0.000871438
0.000871432
0.000871427
0.000871425
0.000869662
0.000869663
0.000869667
0.000869671
0.000869678
0.000869688
0.0008697
0.000869717
0.000869738
0.000869766
0.000869803
0.000869853
0.00086992
0.000870013
0.000870146
0.000870338
0.000870622
0.000871043
0.000871702
0.000872707
0.000874378
0.000877166
0.000882018
0.00088954
0.000906699
0.000933291
0.00102342
0.00256131
0.00694228
0.00384192
0.00252016
0.00216782
0.00312287
0.000971689
0.000900283
0.000885675
0.000876995
0.000874547
0.000872147
0.000871415
0.000871066
0.000870818
0.000870646
0.000870517
0.000870419
0.00087034
0.000870277
0.000870224
0.000870181
0.000870145
0.000870114
0.000870088
0.000870066
0.000870048
0.000870033
0.00087002
0.00087001
0.000870003
0.000869999
0.000869996
0.000868246
0.000868247
0.00086825
0.000868255
0.000868262
0.000868271
0.000868284
0.000868301
0.000868322
0.000868351
0.000868388
0.000868439
0.000868509
0.000868608
0.000868748
0.000868949
0.000869245
0.000869684