/*--------------------------------*- C++ -*----------------------------------*\
  =========                 |
  \\      /  F ield         | OpenFOAM: The Open Source CFD Toolbox
   \\    /   O peration     | Website:  https://openfoam.org
    \\  /    A nd           | Version:  12
     \\/     M anipulation  |
\*---------------------------------------------------------------------------*/
FoamFile
{
    format      ascii;
    class       volScalarField;
    location    "40";
    object      omega;
}
// * * * * * * * * * * * * * * * * * * * * * * * * * * * * * * * * * * * * * //

dimensions      [0 0 -1 0 0 0 0];

internalField   nonuniform List<scalar> 
16227
(
9.34702
9.34704
9.34704
9.34707
9.34706
9.3471
9.34709
9.34708
9.34707
9.34709
9.34713
9.34715
9.3472
9.3472
9.3472
9.3472
9.3472
9.3472
9.3472
9.3472
9.3472
9.3472
9.3472
9.3472
9.3472
9.3472
9.3472
9.34722
9.34722
9.3472
9.34721
9.3472
9.3472
9.3472
9.34721
9.3472
9.3472
9.3472
9.3472
9.3472
9.3472
9.3472
9.3472
9.3472
9.3472
9.3472
9.3472
9.34719
9.34717
9.34717
9.34717
9.34716
9.3471
9.3471
9.34706
9.34705
9.34707
9.34705
9.34703
9.34702
8.71807
8.71809
8.71808
8.71811
8.71812
8.71815
8.71814
8.71812
8.71813
8.71814
8.71819
8.71821
8.71835
8.71841
8.71842
8.71842
8.71842
8.71842
8.71842
8.71841
8.71843
8.71844
8.71844
8.71844
8.71843
8.71843
8.71843
8.71843
8.71841
8.71836
8.71841
8.71842
8.71842
8.71842
8.71842
8.71841
8.71839
8.71839
8.71839
8.71839
8.71839
8.71839
8.71839
8.71838
8.71838
8.71836
8.71836
8.71837
8.71837
8.71835
8.71833
8.71828
8.71816
8.71815
8.71811
8.71809
8.71813
8.71805
8.71807
8.71804
8.16623
8.16625
8.16626
8.16627
8.16627
8.16636
8.16631
8.1663
8.16631
8.16632
8.16636
8.16638
8.16662
8.16668
8.16669
8.1667
8.1667
8.1667
8.16672
8.16666
8.1667
8.1667
8.1667
8.16669
8.16669
8.16668
8.16667
8.16668
8.16666
8.16659
8.16664
8.16665
8.16665
8.16664
8.16664
8.16664
8.16664
8.16663
8.16661
8.16661
8.16661
8.16662
8.1666
8.16659
8.16659
8.16659
8.16658
8.16658
8.16657
8.16655
8.16652
8.16633
8.16625
8.16624
8.16622
8.16622
8.16625
8.16616
8.16617
8.16615
7.67838
7.6784
7.6784
7.67842
7.67842
7.67849
7.67849
7.67846
7.67847
7.67847
7.67852
7.67857
7.67883
7.6789
7.67892
7.67894
7.67894
7.67895
7.67889
7.67876
7.67887
7.6789
7.67889
7.67889
7.67888
7.67887
7.67886
7.67884
7.67881
7.67872
7.67878
7.67879
7.67878
7.67877
7.67877
7.67877
7.67877
7.67876
7.67876
7.67875
7.67875
7.67875
7.67874
7.67874
7.67873
7.67873
7.67873
7.67872
7.67873
7.6787
7.67858
7.67839
7.67829
7.67832
7.67831
7.67833
7.6783
7.67823
7.67823
7.67822
7.24417
7.24418
7.24419
7.24421
7.24422
7.24428
7.24431
7.24425
7.24427
7.24428
7.24432
7.24438
7.24462
7.24475
7.24477
7.24477
7.24478
7.24475
7.24454
7.24447
7.24465
7.24471
7.24469
7.24467
7.24464
7.24462
7.2446
7.24458
7.24454
7.24443
7.2445
7.24451
7.2445
7.24449
7.24448
7.24448
7.24448
7.24448
7.24448
7.24447
7.24448
7.24449
7.24447
7.24447
7.24447
7.24448
7.24447
7.24447
7.24447
7.24439
7.24415
7.24404
7.24397
7.244
7.24402
7.24406
7.244
7.24393
7.24393
7.24391
6.85534
6.85537
6.85536
6.85538
6.85539
6.85544
6.85549
6.85545
6.85544
6.85544
6.85546
6.8555
6.85563
6.85591
6.85598
6.85599
6.85599
6.85589
6.85565
6.85561
6.85581
6.85585
6.85582
6.85578
6.85575
6.85573
6.85569
6.85565
6.8556
6.85548
6.85554
6.85554
6.85554
6.85553
6.85552
6.85552
6.85553
6.85553
6.85553
6.85553
6.85554
6.85554
6.85555
6.85556
6.85556
6.85556
6.85557
6.85557
6.85556
6.85542
6.85519
6.85508
6.85504
6.85509
6.85513
6.85512
6.85507
6.85501
6.85501
6.85499
6.50525
6.50528
6.50527
6.50529
6.5053
6.50535
6.5054
6.50539
6.50536
6.50537
6.50536
6.50538
6.50549
6.50576
6.5059
6.50592
6.50589
6.5056
6.50548
6.50547
6.50567
6.50569
6.50565
6.5056
6.50555
6.5055
6.50544
6.5054
6.50534
6.50519
6.50526
6.50526
6.50524
6.50524
6.50524
6.50524
6.50524
6.50526
6.50527
6.50529
6.5053
6.50531
6.50533
6.50534
6.50536
6.50536
6.50537
6.50538
6.50531
6.50504
6.50492
6.50484
6.50484
6.50491
6.50492
6.50491
6.50486
6.50481
6.50482
6.5048
6.18847
6.18848
6.18848
6.18851
6.18851
6.18855
6.1886
6.18861
6.18859
6.18857
6.18856
6.18854
6.18861
6.18875
6.18904
6.18913
6.18907
6.18873
6.18862
6.1886
6.1888
6.18882
6.18875
6.18868
6.1886
6.18853
6.18847
6.1884
6.18831
6.18816
6.18822
6.18822
6.18821
6.1882
6.1882
6.18821
6.18822
6.18824
6.18827
6.18829
6.18833
6.18834
6.18837
6.1884
6.18843
6.18843
6.18845
6.18845
6.18832
6.18807
6.18796
6.18792
6.18797
6.18801
6.188
6.188
6.18796
6.18791
6.18792
6.1879
5.90051
5.90052
5.90053
5.90054
5.90055
5.90059
5.90064
5.90065
5.90066
5.90063
5.90061
5.90057
5.90061
5.90072
5.90107
5.90117
5.90102
5.9007
5.9006
5.90056
5.90075
5.90074
5.90064
5.90055
5.90045
5.90036
5.90026
5.90018
5.90008
5.8999
5.89995
5.89995
5.89994
5.89994
5.89994
5.89996
5.89999
5.90003
5.90006
5.9001
5.90014
5.90019
5.90023
5.90026
5.90029
5.90034
5.90035
5.90028
5.90002
5.8999
5.89983
5.89986
5.89988
5.89992
5.89992
5.89992
5.8999
5.89985
5.89985
5.89985
5.63768
5.63769
5.63769
5.63771
5.63771
5.63775
5.6378
5.63781
5.63782
5.63782
5.63778
5.63773
5.63777
5.63789
5.63817
5.63827
5.63797
5.63777
5.63768
5.63764
5.63779
5.63776
5.63764
5.63751
5.63738
5.63726
5.63714
5.63703
5.63691
5.63672
5.63677
5.63675
5.63674
5.63674
5.63676
5.63679
5.63683
5.63689
5.63695
5.637
5.63706
5.63712
5.63719
5.63724
5.63729
5.63733
5.63735
5.63726
5.63699
5.63689
5.63688
5.6369
5.63692
5.63696
5.63697
5.63697
5.63694
5.63691
5.63691
5.63691
5.39685
5.39686
5.39687
5.39688
5.3969
5.39693
5.39698
5.39698
5.39699
5.397
5.39699
5.39692
5.3969
5.39697
5.39709
5.39731
5.39703
5.39687
5.39677
5.39671
5.39678
5.39676
5.39662
5.39646
5.3963
5.39614
5.39599
5.39585
5.39571
5.3955
5.39553
5.39552
5.39551
5.39552
5.39555
5.3956
5.39566
5.39573
5.39581
5.3959
5.39598
5.39606
5.39614
5.39621
5.39627
5.39632
5.39628
5.39614
5.39598
5.39591
5.39592
5.39594
5.39597
5.39602
5.39603
5.39604
5.39601
5.39598
5.39599
5.39598
5.17542
5.17543
5.17544
5.17546
5.17547
5.17551
5.17554
5.17557
5.17557
5.17557
5.17556
5.17552
5.17547
5.17549
5.17557
5.17575
5.17554
5.17538
5.17524
5.17514
5.17505
5.1751
5.17497
5.17477
5.17457
5.17437
5.17419
5.17402
5.17385
5.17363
5.17365
5.17364
5.17363
5.17365
5.17369
5.17376
5.17384
5.17394
5.17404
5.17415
5.17426
5.17436
5.17447
5.17457
5.17464
5.17466
5.17453
5.17447
5.1744
5.17434
5.17436
5.1744
5.17443
5.17447
5.17449
5.1745
5.17448
5.17445
5.17446
5.17445
4.97116
4.97118
4.97118
4.9712
4.97122
4.97126
4.97129
4.97131
4.97132
4.97132
4.97132
4.97127
4.97123
4.97118
4.97118
4.9712
4.97117
4.97106
4.9709
4.97075
4.97059
4.97064
4.97048
4.97024
4.96999
4.96975
4.96952
4.96932
4.96912
4.96888
4.96889
4.96886
4.96886
4.9689
4.96896
4.96906
4.96917
4.96929
4.96943
4.96957
4.96971
4.96985
4.96997
4.97009
4.97016
4.97017
4.97006
4.97006
4.96998
4.96995
4.96998
4.97002
4.97006
4.9701
4.97013
4.97014
4.97012
4.9701
4.97011
4.9701
4.78218
4.7822
4.7822
4.78222
4.78224
4.78228
4.78231
4.78234
4.78235
4.78236
4.78235
4.78231
4.78227
4.78222
4.78215
4.78214
4.78214
4.78203
4.78184
4.78166
4.78145
4.78146
4.78125
4.78096
4.78066
4.78036
4.78009
4.77984
4.77961
4.77934
4.77934
4.77932
4.77933
4.77938
4.77947
4.77959
4.77974
4.7799
4.78007
4.78025
4.78042
4.78059
4.78074
4.78087
4.7809
4.78087
4.78088
4.78089
4.78085
4.78085
4.78088
4.78093
4.78097
4.78102
4.78105
4.78106
4.78105
4.78103
4.78104
4.78103
4.60683
4.60685
4.60686
4.60688
4.6069
4.60694
4.60699
4.60701
4.60703
4.60704
4.60703
4.607
4.60695
4.6069
4.60683
4.60681
4.6068
4.60665
4.60643
4.60621
4.60597
4.60592
4.60565
4.6053
4.60494
4.60459
4.60426
4.60396
4.60369
4.6034
4.60338
4.60336
4.60338
4.60345
4.60357
4.60373
4.60392
4.60413
4.60434
4.60456
4.60477
4.60497
4.60515
4.60526
4.60522
4.60528
4.60534
4.60538
4.60537
4.60538
4.60544
4.60549
4.60553
4.60558
4.60561
4.60563
4.60562
4.60561
4.60562
4.60561
4.44372
4.44374
4.44375
4.44377
4.4438
4.44385
4.44389
4.44392
4.44395
4.44396
4.44395
4.44392
4.44389
4.44383
4.44376
4.44373
4.44369
4.44353
4.44327
4.44301
4.44272
4.44256
4.44227
4.44186
4.44143
4.44101
4.44062
4.44026
4.43994
4.43962
4.43959
4.43957
4.43961
4.43971
4.43987
4.44008
4.44031
4.44057
4.44083
4.44109
4.44134
4.44158
4.44179
4.44188
4.44188
4.44197
4.44205
4.44208
4.4421
4.44215
4.44223
4.44229
4.44234
4.4424
4.44243
4.44244
4.44244
4.44243
4.44244
4.44243
4.29162
4.29163
4.29165
4.29167
4.29171
4.29176
4.29181
4.29184
4.29188
4.2919
4.29191
4.29187
4.29184
4.29178
4.29171
4.29166
4.29162
4.29142
4.29115
4.29082
4.29047
4.29011
4.28987
4.28942
4.28892
4.28841
4.28794
4.28752
4.28715
4.2868
4.28675
4.28674
4.2868
4.28693
4.28714
4.2874
4.2877
4.28801
4.28833
4.28864
4.28894
4.2892
4.28937
4.28945
4.28957
4.2897
4.28981
4.28984
4.28989
4.28997
4.29005
4.29011
4.29017
4.29022
4.29026
4.29027
4.29027
4.29026
4.29027
4.29027
4.14945
4.14947
4.14949
4.14952
4.14955
4.14962
4.14967
4.14971
4.14976
4.14979
4.1498
4.14978
4.14975
4.1497
4.14962
4.14957
4.14951
4.14931
4.14899
4.14861
4.1482
4.14773
4.14744
4.14693
4.14633
4.14573
4.14516
4.14467
4.14423
4.14384
4.14378
4.14378
4.14386
4.14405
4.14432
4.14464
4.145
4.14538
4.14577
4.14613
4.14648
4.14675
4.14685
4.14703
4.14722
4.1474
4.14752
4.14758
4.14765
4.14774
4.14783
4.14789
4.14795
4.14801
4.14805
4.14806
4.14806
4.14806
4.14806
4.14806
4.01629
4.01631
4.01633
4.01637
4.01642
4.01648
4.01655
4.0166
4.01666
4.0167
4.01672
4.01672
4.01669
4.01665
4.01657
4.01651
4.01643
4.01621
4.01588
4.01546
4.01498
4.01446
4.01402
4.01344
4.01274
4.01202
4.01135
4.01076
4.01025
4.00982
4.00974
4.00975
4.00988
4.01012
4.01046
4.01087
4.01131
4.01176
4.01221
4.01263
4.01303
4.01332
4.01347
4.0137
4.01393
4.01412
4.01423
4.01432
4.01443
4.01454
4.01463
4.0147
4.01476
4.01482
4.01485
4.01487
4.01487
4.01486
4.01487
4.01487
3.89132
3.89134
3.89137
3.89141
3.89146
3.89153
3.89161
3.89168
3.89174
3.8918
3.89184
3.89185
3.89184
3.89181
3.89174
3.89166
3.89157
3.89135
3.891
3.89054
3.88999
3.88937
3.88871
3.88812
3.88733
3.88649
3.88568
3.88497
3.88438
3.88389
3.8838
3.88384
3.88402
3.88434
3.88477
3.88526
3.88579
3.88633
3.88683
3.88729
3.8877
3.88801
3.8883
3.88859
3.88887
3.88906
3.88918
3.88929
3.88943
3.88954
3.88963
3.88971
3.88977
3.88982
3.88986
3.88988
3.88988
3.88987
3.88988
3.88988
3.7738
3.77383
3.77386
3.77391
3.77397
3.77405
3.77414
3.77422
3.7743
3.77437
3.77444
3.77446
3.77447
3.77445
3.77438
3.77428
3.77417
3.77398
3.77363
3.77315
3.77254
3.77182
3.77103
3.77034
3.76941
3.76841
3.76744
3.76659
3.76589
3.76534
3.76523
3.7653
3.76555
3.76597
3.76651
3.76711
3.76774
3.76835
3.76893
3.76945
3.76985
3.77025
3.77064
3.77099
3.77128
3.77146
3.77161
3.77176
3.77191
3.77203
3.77213
3.7722
3.77226
3.77231
3.77234
3.77236
3.77235
3.77235
3.77236
3.77236
3.6631
3.66313
3.66317
3.66322
3.66329
3.66338
3.66348
3.66358
3.66368
3.66377
3.66385
3.66391
3.66394
3.66394
3.66389
3.6638
3.66368
3.66351
3.66315
3.66264
3.66199
3.66121
3.6603
3.65944
3.65836
3.65716
3.656
3.65497
3.65414
3.65351
3.65338
3.6535
3.65385
3.65439
3.65506
3.65579
3.65651
3.6572
3.65788
3.65849
3.65896
3.65944
3.65988
3.66026
3.66054
3.66074
3.66091
3.66109
3.66124
3.66136
3.66145
3.66152
3.66158
3.66163
3.66166
3.66167
3.66167
3.66167
3.66167
3.66167
3.55864
3.55867
3.55871
3.55877
3.55885
3.55896
3.55907
3.55919
3.55931
3.55943
3.55953
3.55961
3.55968
3.55971
3.55969
3.55962
3.55951
3.55934
3.559
3.55849
3.5578
3.55694
3.55594
3.55484
3.55369
3.55226
3.55087
3.54963
3.54864
3.54791
3.54777
3.54797
3.54844
3.54913
3.54995
3.55082
3.55153
3.55233
3.55305
3.55375
3.55437
3.55493
3.55541
3.55579
3.55606
3.55629
3.5565
3.55669
3.55684
3.55696
3.55705
3.55712
3.55717
3.55721
3.55723
3.55725
3.55724
3.55723
3.55724
3.55724
3.45991
3.45995
3.45999
3.46006
3.46015
3.46026
3.4604
3.46053
3.46068
3.46082
3.46096
3.46107
3.46117
3.46124
3.46126
3.46121
3.46111
3.46094
3.46065
3.46017
3.45948
3.45858
3.45752
3.45676
3.50281
3.5013
3.49976
3.49837
3.49726
3.49646
3.49632
3.49656
3.49711
3.49788
3.49879
3.49974
3.45282
3.45325
3.4541
3.4549
3.45562
3.45623
3.45673
3.45709
3.45738
3.45764
3.45788
3.45807
3.45821
3.45832
3.4584
3.45847
3.45851
3.45854
3.45856
3.45857
3.45856
3.45855
3.45855
3.45855
3.36645
3.36649
3.36654
3.36662
3.36672
3.36685
3.367
3.36716
3.36732
3.3675
3.36766
3.36782
3.36796
3.36807
3.36814
3.36814
3.36807
3.36792
3.36767
3.36728
3.36663
3.36575
3.36516
3.40886
3.4055
3.40396
3.40213
3.40044
3.39906
3.39809
3.39789
3.39818
3.39884
3.39978
3.40086
3.4019
3.40461
3.36002
3.36062
3.36149
3.36226
3.3629
3.36339
3.36376
3.36407
3.36434
3.36457
3.36475
3.36489
3.36499
3.36506
3.36511
3.36514
3.36517
3.36518
3.36518
3.36517
3.36516
3.36516
3.36516
3.27786
3.27789
3.27795
3.27804
3.27815
3.2783
3.27846
3.27864
3.27884
3.27904
3.27925
3.27944
3.27963
3.2798
3.27993
3.28
3.27999
3.2799
3.27973
3.27941
3.27886
3.27807
3.27796
3.31734
3.3141
3.33457
3.33256
3.33068
3.32917
3.3281
3.32788
3.32816
3.32884
3.32982
3.33096
3.3099
3.31228
3.27181
3.27217
3.27309
3.27387
3.2745
3.27497
3.27535
3.27568
3.27596
3.27618
3.27634
3.27646
3.27655
3.27661
3.27665
3.27667
3.27669
3.27669
3.27668
3.27666
3.27665
3.27664
3.27664
3.19375
3.19379
3.19386
3.19395
3.19408
3.19423
3.19442
3.19462
3.19485
3.19508
3.19533
3.19557
3.19581
3.19604
3.19625
3.1964
3.19648
3.19649
3.19639
3.19619
3.19582
3.19527
3.19576
3.2312
3.22835
3.24682
3.24486
3.24317
3.24199
3.24126
3.24094
3.24068
3.24077
3.24136
3.24219
3.22351
3.2251
3.18841
3.18844
3.18934
3.19009
3.19067
3.19114
3.19154
3.19187
3.19213
3.19232
3.19246
3.19257
3.19263
3.19268
3.1927
3.19271
3.19271
3.19271
3.19269
3.19267
3.19265
3.19264
3.19264
3.11381
3.11385
3.11392
3.11402
3.11416
3.11433
3.11454
3.11476
3.11502
3.11528
3.11557
3.11586
3.11617
3.11647
3.11675
3.117
3.11721
3.11734
3.11739
3.11735
3.11722
3.11706
3.11836
3.15045
3.1484
3.16549
3.1646
3.16521
3.16751
3.16966
3.16874
3.16478
3.16138
3.15983
3.15964
3.14221
3.14301
3.1095
3.1091
3.1099
3.11057
3.11113
3.11159
3.11198
3.11228
3.11251
3.11267
3.11279
3.11286
3.11291
3.11293
3.11294
3.11293
3.11292
3.11291
3.11288
3.11285
3.11282
3.11281
3.11281
3.03772
3.03776
3.03784
3.03795
3.0381
3.03828
3.03851
3.03876
3.03904
3.03934
3.03967
3.04002
3.04038
3.04076
3.04113
3.0415
3.04184
3.04214
3.0424
3.04261
3.04281
3.04323
3.04552
3.07499
3.07488
3.0919
3.0955
3.10788
3.13241
3.15768
3.14987
3.11931
3.09772
3.08765
3.08396
3.06641
3.0659
3.03478
3.03382
3.03446
3.03507
3.03559
3.03603
3.03636
3.03661
3.0368
3.03692
3.03701
3.03705
3.03707
3.03707
3.03706
3.03704
3.03701
3.03698
3.03695
3.03691
3.03687
3.03686
3.03685
2.96521
2.96526
2.96534
2.96546
2.96561
2.96582
2.96606
2.96633
2.96664
2.96698
2.96735
2.96775
2.96818
2.96863
2.96911
2.96959
2.97009
2.97059
2.97111
2.97167
2.97235
2.97353
2.97701
3.00482
3.00849
3.02778
3.04779
3.1131
3.30221
3.55374
3.47415
3.20135
3.07186
3.02966
3.01602
2.99627
2.99343
2.96401
2.9624
2.96286
2.96335
2.96378
2.96413
2.96439
2.96459
2.96472
2.9648
2.96484
2.96486
2.96485
2.96482
2.96479
2.96474
2.9647
2.96466
2.96461
2.96457
2.96453
2.96451
2.9645
2.89603
2.89609
2.89617
2.8963
2.89646
2.89668
2.89694
2.89723
2.89756
2.89794
2.89835
2.8988
2.8993
2.89983
2.9004
2.90102
2.90168
2.90241
2.90322
2.90421
2.90549
2.90766
2.91247
2.93961
2.94943
2.97579
3.04147
3.40872
12.6644
49.2193
36.0212
7.45275
3.16092
2.99218
2.95603
2.9318
2.92517
2.89691
2.89459
2.89478
2.8951
2.8954
2.89564
2.89582
2.89595
2.89602
2.89605
2.89605
2.89603
2.89598
2.89593
2.89587
2.8958
2.89575
2.89569
2.89563
2.89558
2.89553
2.89551
2.8955
2.82997
2.83002
2.83011
2.83024
2.83042
2.83064
2.83092
2.83123
2.83159
2.83199
2.83244
2.83294
2.8335
2.83411
2.83479
2.83553
2.83637
2.83732
2.83846
2.8399
2.84186
2.84515
2.85137
2.87883
2.89636
2.93517
3.09362
7.23004
52.6648
146.775
95.1541
33.279
4.36422
2.97413
2.90193
2.87186
2.86053
2.83324
2.83008
2.82994
2.83005
2.8302
2.83032
2.83041
2.83045
2.83046
2.83043
2.83039
2.83032
2.83025
2.83016
2.83008
2.82999
2.82992
2.82984
2.82978
2.82971
2.82966
2.82963
2.82963
2.7668
2.76685
2.76694
2.76708
2.76727
2.7675
2.76779
2.76812
2.7685
2.76893
2.76942
2.76996
2.77057
2.77126
2.77203
2.7729
2.7739
2.77508
2.77653
2.77844
2.7811
2.7855
2.79298
2.82122
2.84678
2.89754
3.15016
11.1967
53.1873
257.968
78.9319
34.1968
6.51595
2.95279
2.84864
2.81495
2.79911
2.77252
2.76852
2.76803
2.76794
2.76794
2.76793
2.76792
2.76788
2.76782
2.76774
2.76764
2.76753
2.76742
2.76731
2.7672
2.76709
2.767
2.76691
2.76684
2.76676
2.76671
2.76667
2.76666
2.70635
2.7064
2.70649
2.70664
2.70683
2.70707
2.70737
2.70771
2.7081
2.70856
2.70908
2.70966
2.71032
2.71107
2.71192
2.7129
2.71405
2.71545
2.7172
2.71953
2.72284
2.72819
2.73671
2.76559
2.798
2.85466
3.15288
11.1913
36.214
49.5887
7.90877
2.90799
2.79403
2.75947
2.74025
2.7144
2.70962
2.70881
2.70852
2.70837
2.70824
2.70813
2.70801
2.70788
2.70774
2.7076
2.70745
2.70731
2.70716
2.70703
2.70691
2.7068
2.7067
2.70661
2.70653
2.70647
2.70644
2.70643
2.64843
2.64849
2.64858
2.64873
2.64892
2.64917
2.64947
2.64982
2.65023
2.65071
2.65125
2.65186
2.65256
2.65336
2.65428
2.65536
2.65664
2.65821
2.66021
2.66289
2.66674
2.6728
2.68211
2.71107
2.74863
2.80475
3.10845
9.61932
25.8681
409.027
149.095
9.03116
2.85281
2.73885
2.70496
2.68372
2.65867
2.65324
2.65214
2.65168
2.65138
2.65113
2.65092
2.65072
2.65052
2.65032
2.65013
2.64995
2.64977
2.6496
2.64944
2.64929
2.64916
2.64905
2.64895
2.64886
2.6488
2.64876
2.64875
2.5929
2.59296
2.59305
2.5932
2.59339
2.59364
2.59395
2.59431
2.59473
2.59521
2.59577
2.5964
2.59713
2.59797
2.59894
2.60009
2.60147
2.60317
2.60536
2.60829
2.61254
2.61907
2.629
2.65747
2.69828
2.75183
3.03483
7.93706
22.2562
148.942
151.735
79.7246
9.74676
2.79662
2.68439
2.65124
2.62924
2.60508
2.59914
2.5978
2.5972
2.59676
2.59641
2.5961
2.59582
2.59556
2.59531
2.59507
2.59484
2.59462
2.59442
2.59424
2.59407
2.59393
2.5938
2.59369
2.59359
2.59352
2.59347
2.59347
2.5396
2.53966
2.53976
2.5399
2.5401
2.54035
2.54065
2.54101
2.54144
2.54193
2.54249
2.54313
2.54388
2.54474
2.54575
2.54694
2.54838
2.55016
2.55247
2.55554
2.56002
2.56684
2.57724
2.60481
2.64686
2.69944
2.94678
6.58527
17.7006
89.6884
111.959
59.8675
10.0076
2.74008
2.6311
2.59854
2.57665
2.55343
2.54712
2.54563
2.5449
2.54435
2.5439
2.54351
2.54316
2.54283
2.54253
2.54224
2.54197
2.54172
2.54149
2.54129
2.5411
2.54094
2.54079
2.54067
2.54057
2.54049
2.54044
2.54043
2.48841
2.48846
2.48856
2.4887
2.4889
2.48915
2.48945
2.48981
2.49023
2.49072
2.49128
2.49193
2.49268
2.49355
2.49457
2.49577
2.49722
2.499
2.50137
2.50451
2.50915
2.51611
2.52689
2.55341
2.59474
2.64811
2.85635
5.60582
14.4479
62.1779
93.3015
48.3888
9.96039
2.68496
2.57922
2.54728
2.52593
2.50362
2.49705
2.49545
2.49464
2.494
2.49346
2.493
2.49258
2.4922
2.49184
2.49151
2.49121
2.49093
2.49067
2.49044
2.49023
2.49005
2.4899
2.48976
2.48965
2.48957
2.48952
2.4895
2.43919
2.43925
2.43934
2.43949
2.43967
2.43992
2.44022
2.44057
2.44099
2.44147
2.44203
2.44266
2.4434
2.44425
2.44525
2.4464
2.44783
2.44965
2.45205
2.45522
2.45989
2.46683
2.47791
2.50341
2.54249
2.59767
2.77323
4.96205
12.2615
48.2616
79.082
41.3796
9.63345
2.63167
2.52906
2.49754
2.47708
2.45563
2.44884
2.44716
2.44627
2.44555
2.44496
2.44444
2.44396
2.44353
2.44313
2.44276
2.44242
2.44211
2.44183
2.44157
2.44135
2.44116
2.44099
2.44084
2.44073
2.44063
2.44058
2.44056
2.39185
2.3919
2.392
2.39213
2.39232
2.39255
2.39285
2.39319
2.39359
2.39406
2.3946
2.39522
2.39593
2.39672
2.39767
2.39883
2.40028
2.40209
2.40446
2.40758
2.41215
2.41898
2.43027
2.45489
2.49075
2.54711
2.70329
4.62268
11.6549
43.0398
68.1327
36.1798
9.19188
2.58141
2.48107
2.4499
2.43
2.40922
2.40235
2.4006
2.39964
2.39886
2.39822
2.39769
2.39718
2.3967
2.39626
2.39586
2.39549
2.39515
2.39485
2.39458
2.39434
2.39413
2.39395
2.3938
2.39367
2.39357
2.39351
2.39349
2.34626
2.34632
2.34641
2.34654
2.34672
2.34695
2.34723
2.34756
2.34795
2.3484
2.34891
2.34949
2.35014
2.35091
2.35186
2.353
2.35441
2.35617
2.35847
2.36151
2.36588
2.37251
2.38391
2.40785
2.44015
2.49493
2.64288
4.72765
12.201
43.985
59.3859
31.9067
8.70696
2.53554
2.43546
2.40424
2.3848
2.36459
2.35756
2.35572
2.35474
2.35394
2.35324
2.35264
2.35211
2.3516
2.35114
2.35071
2.35031
2.34995
2.34963
2.34934
2.34908
2.34886
2.34867
2.34851
2.34838
2.34828
2.34821
2.34819
2.30235
2.3024
2.30249
2.30261
2.30278
2.303
2.30327
2.30359
2.30395
2.30437
2.30482
2.30536
2.306
2.30677
2.30768
2.30878
2.31013
2.31182
2.31403
2.31695
2.32106
2.32744
2.33894
2.36213
2.39087
2.44126
2.59828
4.96172
14.1196
44.0321
52.0751
28.453
8.25804
2.49312
2.39162
2.36073
2.34116
2.32149
2.31445
2.31256
2.31144
2.31063
2.3099
2.30923
2.30864
2.30811
2.30765
2.3072
2.30679
2.30641
2.30607
2.30576
2.30549
2.30526
2.30506
2.30489
2.30475
2.30465
2.30458
2.30456
2.26001
2.26006
2.26014
2.26026
2.26042
2.26063
2.26088
2.26118
2.26152
2.26188
2.26231
2.26283
2.26345
2.26418
2.26505
2.26608
2.26736
2.26896
2.27105
2.27382
2.27764
2.28381
2.29525
2.31752
2.3429
2.38901
2.55635
5.17416
15.6316
41.8004
45.4965
25.6935
7.8416
2.45219
2.34859
2.31919
2.29901
2.27981
2.27284
2.27095
2.26972
2.26881
2.26807
2.26739
2.26676
2.26619
2.26569
2.26524
2.26482
2.26443
2.26407
2.26375
2.26347
2.26323
2.26302
2.26285
2.2627
2.26259
2.26253
2.2625
2.21917
2.21922
2.2193
2.21941
2.21956
2.21975
2.21998
2.22025
2.22055
2.22089
2.22131
2.22181
2.22238
2.22307
2.22387
2.22484
2.22603
2.22755
2.22949
2.2321
2.23569
2.24162
2.25284
2.27398
2.2963
2.34269
2.5074
5.38203
15.8007
37.4662
39.4681
23.281
7.37386
2.40754
2.30588
2.27937
2.25822
2.23949
2.23263
2.23075
2.22947
2.2285
2.22766
2.22698
2.22633
2.22573
2.22521
2.22474
2.22432
2.22392
2.22355
2.22323
2.22293
2.22269
2.22247
2.22229
2.22214
2.22203
2.22196
2.22194
2.17975
2.1798
2.17987
2.17997
2.18011
2.18028
2.18048
2.18071
2.181
2.18134
2.18173
2.18219
2.18272
2.18335
2.18409
2.18499
2.1861
2.18751
2.18931
2.19179
2.19514
2.20081
2.21172
2.23161
2.25132
2.3029
2.45543
5.40228
14.5969
33.7221
35.692
20.8719
6.81148
2.35851
2.26372
2.24114
2.21872
2.20048
2.19376
2.19188
2.19056
2.18957
2.18868
2.18793
2.18724
2.18662
2.18611
2.18564
2.1852
2.18481
2.18444
2.1841
2.18381
2.18355
2.18333
2.18315
2.183
2.18288
2.18281
2.18279
2.14167
2.14172
2.14178
2.14188
2.142
2.14215
2.14233
2.14255
2.14282
2.14313
2.14349
2.14391
2.1444
2.14498
2.14566
2.14648
2.14749
2.14879
2.15044
2.15283
2.15594
2.16136
2.17191
2.19057
2.20823
2.26533
2.4092
5.3128
14.3358
31.6196
34.4966
18.0672
6.23562
2.31121
2.22281
2.20466
2.18045
2.1627
2.15613
2.15429
2.15292
2.15193
2.15101
2.15024
2.14953
2.14889
2.14833
2.14785
2.14741
2.14701
2.14665
2.14632
2.14601
2.14575
2.14553
2.14534
2.14519
2.14507
2.145
2.14497
2.10488
2.10493
2.10499
2.10507
2.10517
2.1053
2.10547
2.10568
2.10593
2.10621
2.10654
2.10692
2.10736
2.10788
2.1085
2.10925
2.11015
2.11134
2.11288
2.11518
2.11805
2.12326
2.13338
2.15096
2.16714
2.22341
2.39781
5.50895
14.7785
30.5598
31.7456
16.5662
5.72372
2.26916
2.18418
2.17031
2.14335
2.12614
2.11969
2.1179
2.1165
2.1155
2.11457
2.11379
2.11307
2.11242
2.11183
2.11132
2.11088
2.11048
2.11011
2.10978
2.10948
2.10922
2.10899
2.1088
2.10865
2.10853
2.10846
2.10843
2.06931
2.06935
2.0694
2.06947
2.06956
2.06969
2.06985
2.07003
2.07026
2.07051
2.07081
2.07114
2.07154
2.07201
2.07257
2.07324
2.07403
2.07515
2.07658
2.07877
2.08144
2.08645
2.09611
2.11282
2.12824
2.17988
2.42149
5.75321
15.9278
29.1417
28.7655
15.2043
5.38088
2.23272
2.14813
2.13821
2.10738
2.09075
2.08438
2.08264
2.08122
2.08023
2.07929
2.07851
2.07778
2.07714
2.07654
2.07601
2.07554
2.07514
2.07477
2.07444
2.07415
2.07389
2.07366
2.07347
2.07332
2.0732
2.07312
2.0731
2.0349
2.03494
2.03498
2.03504
2.03512
2.03524
2.03539
2.03555
2.03575
2.03598
2.03624
2.03654
2.03689
2.03731
2.03781
2.03841
2.03913
2.04016
2.04149
2.04357
2.04606
2.0509
2.06003
2.07615
2.09168
2.14172
2.43305
6.47627
16.795
27.1766
26.0089
14.4203
5.13455
2.20154
2.11419
2.10755
2.07244
2.05651
2.05015
2.04846
2.04704
2.04606
2.04512
2.04435
2.04362
2.04297
2.04238
2.04185
2.04136
2.04093
2.04057
2.04025
2.03996
2.0397
2.03948
2.03929
2.03913
2.03901
2.03894
2.03891
2.0016
2.00163
2.00167
2.00172
2.0018
2.00191
2.00203
2.00218
2.00236
2.00256
2.00279
2.00306
2.00337
2.00374
2.00418
2.0047
2.00537
2.00633
2.00756
2.00953
2.0119
2.01656
2.02514
2.04105
2.05719
2.11135
2.57201
7.44467
16.867
25.4909
23.7556
14.1887
4.99146
2.17478
2.08228
2.07669
2.03852
2.02341
2.01695
2.01531
2.01391
2.01295
2.01202
2.01125
2.01053
2.00989
2.0093
2.00877
2.00828
2.00784
2.00746
2.00714
2.00685
2.0066
2.00638
2.0062
2.00604
2.00592
2.00585
2.00582
1.96936
1.96938
1.96942
1.96947
1.96954
1.96963
1.96974
1.96988
1.97003
1.97021
1.97041
1.97065
1.97092
1.97125
1.97163
1.97209
1.97271
1.9736
1.97475
1.97662
1.9789
1.98337
1.99152
2.00772
2.0244
2.09027
2.98248
8.22471
16.8694
23.7338
22.3935
13.9637
5.06004
2.1495
2.05233
2.04412
2.00564
1.99142
1.98475
1.98316
1.98178
1.98085
1.97992
1.97917
1.97846
1.97782
1.97724
1.97671
1.97623
1.97579
1.9754
1.97506
1.97478
1.97453
1.97432
1.97414
1.97399
1.97387
1.97379
1.97376
1.93813
1.93815
1.93818
1.93822
1.93828
1.93837
1.93847
1.93858
1.93872
1.93887
1.93905
1.93926
1.93949
1.93977
1.9401
1.94054
1.94111
1.94193
1.94301
1.94479
1.94703
1.9513
1.95931
1.97621
1.99453
2.08044
3.43687
8.79256
16.7819
22.1769
21.2904
13.6993
5.22069
2.1266
2.02325
2.00981
1.97391
1.9605
1.9535
1.95195
1.95062
1.9497
1.9488
1.94806
1.94736
1.94673
1.94616
1.94563
1.94516
1.94472
1.94434
1.94399
1.9437
1.94346
1.94325
1.94307
1.94292
1.94281
1.94273
1.9427
1.90786
1.90788
1.90791
1.90795
1.908
1.90807
1.90816
1.90826
1.90838
1.90852
1.90867
1.90885
1.90905
1.90928
1.90959
1.91
1.91052
1.91128
1.91232
1.914
1.91622
1.9203
1.92868
1.9464
1.96964
2.08108
3.81196
9.13419
16.2048
20.7389
19.7283
13.3971
5.35208
2.11103
1.9937
1.97559
1.94338
1.9306
1.92317
1.92166
1.92037
1.91949
1.9186
1.91789
1.9172
1.91658
1.91601
1.91549
1.91502
1.9146
1.91421
1.91387
1.91357
1.91332
1.91312
1.91295
1.9128
1.91269
1.91262
1.91259
1.87852
1.87854
1.87856
1.8786
1.87864
1.87871
1.87878
1.87887
1.87897
1.87909
1.87923
1.87938
1.87955
1.87975
1.88004
1.88041
1.8809
1.88161
1.88262
1.88422
1.88642
1.89036
1.89967
1.91809
1.94972
2.08845
4.08113
9.19501
15.363
19.0953
18.2454
12.9168
5.41831
2.0961
1.96354
1.94382
1.91404
1.90163
1.89374
1.89225
1.89102
1.89016
1.88929
1.8886
1.88793
1.88732
1.88676
1.88625
1.88579
1.88537
1.88499
1.88465
1.88436
1.8841
1.88389
1.88372
1.88359
1.88348
1.88341
1.88338
1.85006
1.85008
1.8501
1.85013
1.85017
1.85023
1.85029
1.85037
1.85046
1.85056
1.85068
1.85081
1.85095
1.85114
1.8514
1.85175
1.8522
1.85287
1.85386
1.85539
1.85759
1.86146
1.87219
1.89113
1.93267
2.09915
4.24482
9.01747
14.3461
17.5722
16.8603
12.2576
5.40381
2.07592
1.93352
1.91582
1.88573
1.87354
1.86516
1.8637
1.86252
1.86168
1.86084
1.86016
1.85951
1.85892
1.85837
1.85787
1.85741
1.857
1.85663
1.85629
1.856
1.85575
1.85553
1.85536
1.85523
1.85513
1.85506
1.85503
1.82245
1.82247
1.82248
1.82251
1.82255
1.82259
1.82265
1.82272
1.8228
1.82289
1.82299
1.82309
1.82322
1.8234
1.82365
1.82397
1.8244
1.82503
1.826
1.82747
1.82966
1.83355
1.84612
1.86535
1.91517
2.24002
4.74433
9.21654
13.5425
16.0576
14.9453
10.5788
4.71275
1.99434
1.90283
1.88944
1.85817
1.84627
1.83741
1.83597
1.83483
1.83401
1.83321
1.83255
1.83191
1.83133
1.83079
1.83031
1.82986
1.82945
1.82908
1.82876
1.82847
1.82822
1.82801
1.82783
1.82769
1.8276
1.82754
1.82751
1.79565
1.79567
1.79568
1.7957
1.79573
1.79578
1.79583
1.79588
1.79595
1.79603
1.79611
1.7962
1.79632
1.79649
1.79672
1.79703
1.79743
1.79804
1.799
1.80042
1.80259
1.80658
1.82043
1.83584
1.89638
2.27845
4.7325
8.87727
12.8044
15.0345
13.9045
10.0647
4.64811
1.97014
1.87427
1.86321
1.82059
1.81959
1.81045
1.80902
1.80794
1.80714
1.80635
1.80572
1.80509
1.80453
1.80401
1.80353
1.80309
1.80269
1.80233
1.80201
1.80173
1.80148
1.80127
1.8011
1.80096
1.80086
1.80081
1.80078
1.76963
1.76964
1.76965
1.76967
1.7697
1.76974
1.76978
1.76983
1.76989
1.76996
1.77003
1.77011
1.77022
1.77038
1.7706
1.77089
1.77128
1.77187
1.77282
1.77419
1.77634
1.78049
1.7958
1.81495
1.93096
2.78821
5.52485
9.34795
12.4663
13.679
11.9144
8.09443
3.61078
1.88781
1.84496
1.80603
1.79473
1.79363
1.78424
1.78283
1.7818
1.78101
1.78026
1.77964
1.77903
1.77848
1.77797
1.7775
1.77708
1.77668
1.77633
1.77602
1.77574
1.7755
1.77529
1.77512
1.77498
1.77488
1.77483
1.7748
1.74435
1.74436
1.74437
1.74439
1.74441
1.74444
1.74449
1.74453
1.74458
1.74464
1.74469
1.74477
1.74488
1.74504
1.74525
1.74552
1.7459
1.74647
1.74741
1.74874
1.75088
1.75525
1.77208
1.79458
1.92664
2.81294
5.43493
9.02836
11.8674
12.9829
11.2418
7.80723
3.56654
1.86809
1.81778
1.77953
1.76939
1.76835
1.75875
1.75737
1.75638
1.75561
1.75489
1.75428
1.7537
1.75316
1.75266
1.7522
1.75179
1.7514
1.75106
1.75075
1.75047
1.75024
1.75004
1.74987
1.74973
1.74963
1.74958
1.74955
1.71979
1.71979
1.7198
1.71982
1.71984
1.71987
1.71991
1.71995
1.72
1.72004
1.72009
1.72017
1.72027
1.72042
1.72062
1.72089
1.72126
1.72181
1.72275
1.72404
1.72617
1.73083
1.74925
1.77502
1.92509
2.8417
5.36398
8.73157
11.3035
12.3346
10.6387
7.55784
3.52495
1.84905
1.79146
1.75387
1.7446
1.74365
1.73396
1.7326
1.73165
1.73091
1.73021
1.72962
1.72905
1.72853
1.72804
1.7276
1.72719
1.72681
1.72647
1.72617
1.7259
1.72567
1.72548
1.72531
1.72518
1.72508
1.72502
1.725
1.69591
1.69591
1.69592
1.69593
1.69595
1.69598
1.69602
1.69605
1.69609
1.69613
1.69618
1.69626
1.69636
1.6965
1.6967
1.69696
1.69732
1.69787
1.6988
1.70005
1.70218
1.70721
1.72726
1.75628
1.92495
2.86697
5.29484
8.44091
10.765
11.7193
10.0818
7.33
3.48392
1.83058
1.76592
1.72899
1.72038
1.71952
1.70984
1.70851
1.7076
1.70687
1.7062
1.70563
1.70508
1.70457
1.70409
1.70366
1.70326
1.70289
1.70256
1.70226
1.702
1.70178
1.70158
1.70142
1.70129
1.70119
1.70113
1.7011
1.67268
1.67269
1.67269
1.67271
1.67273
1.67275
1.67278
1.67282
1.67286
1.67289
1.67294
1.67302
1.67311
1.67325
1.67345
1.67371
1.67407
1.6746
1.67552
1.67675
1.67888
1.68433
1.706
1.73821
1.92506
2.88535
5.2216
8.1517
10.2487
11.13
9.55923
7.11165
3.4422
1.81264
1.74105
1.70479
1.69673
1.69595
1.68637
1.68506
1.68419
1.68348
1.68283
1.68227
1.68174
1.68124
1.68078
1.68036
1.67997
1.67961
1.67928
1.67899
1.67874
1.67852
1.67833
1.67817
1.67804
1.67794
1.67788
1.67785
1.65009
1.65009
1.6501
1.65011