/*--------------------------------*- C++ -*----------------------------------*\
  =========                 |
  \\      /  F ield         | OpenFOAM: The Open Source CFD Toolbox
   \\    /   O peration     | Website:  https://openfoam.org
    \\  /    A nd           | Version:  12
     \\/     M anipulation  |
\*---------------------------------------------------------------------------*/
FoamFile
{
    format      ascii;
    class       volScalarField;
    location    "40";
    object      p;
}
// * * * * * * * * * * * * * * * * * * * * * * * * * * * * * * * * * * * * * //

dimensions      [0 2 -2 0 0 0 0];

internalField   nonuniform List<scalar> 
16227
(
-0.0485578
-0.0484367
-0.0481946
-0.0478311
-0.047346
-0.0467389
-0.0460096
-0.0451581
-0.0441848
-0.0430903
-0.0418758
-0.0405432
-0.0390952
-0.0375355
-0.0358692
-0.0341021
-0.0322419
-0.0302974
-0.0282788
-0.026198
-0.0240677
-0.0219024
-0.0197172
-0.0175279
-0.0153508
-0.0132019
-0.0110969
-0.00905054
-0.00707635
-0.00518632
-0.0033907
-0.00169783
-0.000113563
0.00135833
0.00271621
0.00396039
0.00509288
0.00611727
0.0070383
0.00786167
0.00859376
0.00924132
0.00981131
0.0103107
0.0107463
0.0111246
0.0114518
0.0117337
0.0119754
0.0121817
0.0123569
0.0125046
0.0126282
0.0127304
0.0128137
0.0128802
0.0129315
0.0129689
0.0129932
0.0130051
-0.0486482
-0.0485273
-0.0482853
-0.047922
-0.047437
-0.04683
-0.0461008
-0.045249
-0.0442752
-0.0431798
-0.0419639
-0.0406293
-0.0391784
-0.0376151
-0.0359442
-0.0341716
-0.0323048
-0.0303527
-0.0283255
-0.026235
-0.0240942
-0.0219175
-0.0197205
-0.0175192
-0.0153301
-0.0131695
-0.0110535
-0.00899711
-0.00701412
-0.00511652
-0.00331488
-0.00161758
-3.05349e-05
0.0014426
0.00280028
0.00404298
0.00517288
0.00619378
0.00711061
0.00792931
0.00865639
0.00929881
0.00986366
0.010358
0.0107888
0.0111626
0.0114855
0.0117635
0.0120017
0.012205
0.0123773
0.0125227
0.0126441
0.0127445
0.0128264
0.0128917
0.0129421
0.0129788
0.0130026
0.0130144
-0.0488438
-0.048723
-0.0484814
-0.0481185
-0.0476339
-0.0470272
-0.0462979
-0.0454458
-0.0444709
-0.0433736
-0.0421548
-0.0408158
-0.0393587
-0.0377875
-0.0361067
-0.034322
-0.0324408
-0.0304719
-0.0284258
-0.0263142
-0.0241501
-0.0219487
-0.0197258
-0.0174981
-0.0152826
-0.0130965
-0.0109564
-0.00887802
-0.00687555
-0.00496142
-0.00314663
-0.00143991
0.000152967
0.0016285
0.00298538
0.00422441
0.00534828
0.00636115
0.00726841
0.00807647
0.00879228
0.00942312
0.00997642
0.0104595
0.0108795
0.0112431
0.0115567
0.0118261
0.0120565
0.0122528
0.012419
0.012559
0.0126756
0.0127721
0.0128508
0.0129136
0.0129619
0.0129971
0.01302
0.0130313
-0.0491655
-0.049045
-0.0488039
-0.0484418
-0.047958
-0.0473519
-0.0466229
-0.0457703
-0.0447938
-0.0436936
-0.0424701
-0.0411238
-0.0396569
-0.0380728
-0.0363756
-0.0345709
-0.0326657
-0.0306691
-0.0285915
-0.0264444
-0.0242411
-0.021998
-0.0197316
-0.0174594
-0.0151997
-0.0129706
-0.0107899
-0.00867439
-0.00663939
-0.00469778
-0.00286141
-0.00113924
0.000462876
0.00194178
0.0032966
0.00452872
0.00564155
0.00664012
0.00753063
0.00832018
0.00901643
0.00962731
0.0101607
0.0106245
0.0110261
0.0113724
0.01167
0.0119249
0.0121422
0.0123268
0.0124827
0.0126134
0.0127223
0.0128123
0.0128856
0.012944
0.012989
0.0130218
0.0130431
0.0130536
-0.0496096
-0.0494896
-0.0492495
-0.0488886
-0.0484062
-0.0478013
-0.047073
-0.0462203
-0.0452423
-0.0441385
-0.0429089
-0.0415533
-0.0400736
-0.0384721
-0.0367528
-0.0349207
-0.0329827
-0.0309478
-0.0288264
-0.0266292
-0.024371
-0.0220691
-0.0197413
-0.0174063
-0.0150838
-0.0127936
-0.0105554
-0.00838731
-0.00630603
-0.00432572
-0.00245892
-0.000715399
0.000899395
0.00238255
0.00373378
0.00495551
0.0060522
0.00703006
0.00789649
0.0086595
0.00932786
0.00991038
0.0104158
0.0108524
0.0112281
0.0115503
0.0118257
0.0120602
0.0122593
0.0124277
0.0125693
0.0126873
0.0127856
0.0128667
0.0129327
0.0129851
0.0130256
0.013055
0.0130741
0.0130835
-0.0501714
-0.0500522
-0.0498135
-0.0494546
-0.0489745
-0.0483719
-0.0476453
-0.0467932
-0.0458141
-0.0447068
-0.0434706
-0.0421047
-0.04061
-0.0389875
-0.0372409
-0.0353748
-0.0333958
-0.0313127
-0.0291349
-0.0268733
-0.0245444
-0.0221667
-0.0197591
-0.017342
-0.0149374
-0.0125672
-0.0102534
-0.00801639
-0.00587475
-0.00384387
-0.00193772
-0.000166634
0.00146395
0.00295173
0.00429749
0.00550488
0.0065798
0.00753003
0.00836447
0.00909268
0.00972471
0.0102704
0.0107396
0.0111413
0.011484
0.0117755
0.0120226
0.0122316
0.0124078
0.0125557
0.0126791
0.0127816
0.0128668
0.012937
0.0129938
0.0130391
0.0130738
0.0130991
0.0131155
0.0131235
-0.05085
-0.0507319
-0.0504954
-0.0501395
-0.049663
-0.0490639
-0.0483405
-0.0474904
-0.0465114
-0.0454016
-0.0441592
-0.0427825
-0.0412706
-0.0396245
-0.0378461
-0.0359398
-0.0339118
-0.0317703
-0.0295232
-0.0271828
-0.0247664
-0.0222941
-0.0197864
-0.0172661
-0.0147577
-0.0122865
-0.00987719
-0.00755317
-0.0053354
-0.00324131
-0.00128643
0.000518282
0.00216733
0.00365923
0.00499618
0.00618372
0.00722973
0.00814382
0.00893697
0.00962066
0.0102066
0.0107062
0.0111302
0.0114887
0.0117908
0.0120446
0.0122575
0.0124355
0.0125841
0.0127074
0.0128089
0.0128933
0.0129633
0.0130205
0.0130668
0.0131034
0.0131315
0.0131519
0.0131651
0.0131716
-0.0516457
-0.0515293
-0.0512959
-0.0509443
-0.050473
-0.0498795
-0.0491613
-0.0483153
-0.0473385
-0.0462277
-0.0449802
-0.043593
-0.0420637
-0.0403921
-0.0385782
-0.0366259
-0.0345412
-0.03233
-0.0300007
-0.0275659
-0.0250439
-0.022456
-0.0198255
-0.0171779
-0.0145414
-0.0119448
-0.00941683
-0.00698488
-0.00467328
-0.00250187
-0.000488023
0.00135604
0.00302536
0.00451959
0.00584277
0.00700288
0.00801049
0.00887769
0.00961819
0.0102458
0.0107743
0.0112169
0.0115857
0.0118918
0.012145
0.012354
0.0125262
0.0126678
0.0127839
0.0128783
0.0129552
0.0130189
0.0130713
0.0131139
0.013148
0.0131749
0.0131955
0.0132103
0.01322
0.0132248
-0.0525579
-0.0524436
-0.0522145
-0.0518691
-0.0514052
-0.0508199
-0.0501097
-0.0492711
-0.0482994
-0.0471904
-0.04594
-0.0445442
-0.0429986
-0.0412999
-0.0394478
-0.0374452
-0.0352964
-0.0330053
-0.0305804
-0.0280344
-0.0253863
-0.0226599
-0.0198809
-0.0170787
-0.0142855
-0.0115352
-0.00886191
-0.00629787
-0.00387176
-0.00160689
0.000476729
0.00236597
0.00405625
0.00554913
0.00685152
0.00797417
0.00893116
0.00973819
0.0104123
0.0109702
0.0114281
0.0118015
0.0121039
0.0123476
0.0125433
0.0126998
0.0128248
0.0129245
0.0130034
0.0130648
0.0131145
0.0131553
0.013188
0.0132142
0.013235
0.0132512
0.0132635
0.0132724
0.0132783
0.0132811
-0.0535842
-0.0534729
-0.0532496
-0.0529125
-0.0524589
-0.0518851
-0.051187
-0.0503597
-0.0493976
-0.0482946
-0.0470451
-0.0456435
-0.0440837
-0.0423591
-0.0404685
-0.0384123
-0.0361931
-0.0338121
-0.0312778
-0.0286027
-0.025807
-0.0229163
-0.0199597
-0.016971
-0.0139879
-0.0110508
-0.0082003
-0.00547547
-0.00291103
-0.000534503
0.00163087
0.00357068
0.00528132
0.00676703
0.00803831
0.0091102
0.0100012
0.0107317
0.0113227
0.0117947
0.0121671
0.0124575
0.0126812
0.0128519
0.0129807
0.0130771
0.0131484
0.0132005
0.0132376
0.0132636
0.0132837
0.0132991
0.0133104
0.0133189
0.0133253
0.0133301
0.0133338
0.0133364
0.0133382
0.0133391
-0.0547215
-0.0546141
-0.0543984
-0.0540722
-0.0536324
-0.0530746
-0.0523934
-0.0515829
-0.0506361
-0.0495452
-0.0483023
-0.0468998
-0.0453298
-0.0435831
-0.041656
-0.0395448
-0.0372491
-0.0347688
-0.0321116
-0.0292891
-0.0263224
-0.0232384
-0.0200708
-0.0168583
-0.013646
-0.0104821
-0.00741653
-0.00449684
-0.00176554
0.000743752
0.00300375
0.00499873
0.00672708
0.00819653
0.00942253
0.010426
0.0112312
0.0118646
0.0123524
0.0127195
0.0129889
0.0131808
0.0133125
0.0133987
0.0134512
0.0134795
0.0134909
0.0134901
0.0134815
0.0134697
0.0134579
0.013446
0.0134346
0.0134246
0.0134161
0.0134093
0.0134041
0.0134003
0.0133979
0.0133967
-0.0559661
-0.0558637
-0.0556577
-0.0553457
-0.054924
-0.0543873
-0.0537293
-0.0529425
-0.0520184
-0.0509476
-0.0497195
-0.0483238
-0.0467506
-0.044988
-0.0430262
-0.0408612
-0.0384863
-0.0358994
-0.0331062
-0.0301175
-0.0269542
-0.0236442
-0.0202263
-0.0167461
-0.013257
-0.00981815
-0.00649094
-0.0033347
-0.000402513
0.00226422
0.00463315
0.00668706
0.00842707
0.00986658
0.0110276
0.0119389
0.0126332
0.0131438
0.0135038
0.0137434
0.0138897
0.0139656
0.0139906
0.0139801
0.0139466
0.0138991
0.0138439
0.0137854
0.0137289
0.0136773
0.0136317
0.0135913
0.0135568
0.013528
0.0135046
0.0134861
0.013472
0.0134618
0.0134553
0.013452
-0.0573139
-0.0572177
-0.057024
-0.0567299
-0.0563311
-0.0558219
-0.0551944
-0.0544399
-0.0535482
-0.0525075
-0.051305
-0.049927
-0.0483603
-0.0465902
-0.0446014
-0.0423866
-0.0399324
-0.0372339
-0.0342934
-0.0311199
-0.0277306
-0.024157
-0.0204435
-0.0166428
-0.0128191
-0.00904566
-0.00539921
-0.00195502
0.00122005
0.00407379
0.0065671
0.00868172
0.0104231
0.0118122
0.0128812
0.0136691
0.0142195
0.0145755
0.0147779
0.0148633
0.0148632
0.0148038
0.0147062
0.0145866
0.0144572
0.014326
0.0141985
0.0140797
0.0139735
0.01388
0.0137994
0.0137306
0.0136731
0.0136258
0.0135878
0.013558
0.0135353
0.0135189
0.0135085
0.0135033
-0.0587593
-0.0586707
-0.0584922
-0.0582205
-0.0578506
-0.057376
-0.0567881
-0.0560762
-0.0552283
-0.0542305
-0.0530673
-0.0517213
-0.0501752
-0.0484107
-0.0464076
-0.0441492
-0.0416196
-0.0388079
-0.0357111
-0.0323335
-0.0286885
-0.0248101
-0.0207474
-0.0165624
-0.0123329
-0.00815
-0.00411177
-0.000314352
0.00315571
0.00623199
0.00886654
0.0110405
0.0127661
0.0140753
0.0150144
0.0156376
0.0160022
0.0161636
0.0161724
0.0160722
0.0158995
0.0156835
0.0154467
0.0152053
0.0149706
0.0147486
0.0145446
0.0143639
0.0142064
0.0140703
0.0139552
0.0138587
0.0137791
0.0137144
0.0136627
0.0136223
0.0135917
0.0135698
0.0135557
0.0135488
-0.0602948
-0.0602156
-0.0600556
-0.0598112
-0.059477
-0.0590456
-0.0585073
-0.0578502
-0.0570602
-0.056121
-0.055014
-0.0537183
-0.0522115
-0.0504707
-0.0484696
-0.0461824
-0.0435874
-0.0406658
-0.0374067
-0.0338077
-0.0298765
-0.0256472
-0.0211729
-0.0165261
-0.0118019
-0.00711521
-0.00259193
0.00164196
0.00547341
0.00881547
0.0116092
0.0138357
0.0155177
0.0167045
0.0174619
0.0178653
0.0179904
0.0179079
0.0176797
0.0173577
0.0169831
0.0165878
0.0161946
0.0158189
0.0154696
0.0151512
0.0148701
0.014627
0.0144179
0.0142402
0.0140924
0.01397
0.0138702
0.0137897
0.0137259
0.0136763
0.0136389
0.0136122
0.0135951
0.0135866
-0.0619103
-0.0618423
-0.0617045
-0.0614931
-0.0612022
-0.0608235
-0.0603467
-0.0597584
-0.0590427
-0.0581807
-0.0571509
-0.0559281
-0.0544849
-0.052792
-0.0508165
-0.048523
-0.0458805
-0.0428602
-0.0394395
-0.0356057
-0.0313584
-0.026728
-0.0217691
-0.0165662
-0.0112358
-0.00592378
-0.00079465
0.00398481
0.0082629
0.0119247
0.0148955
0.0171588
0.0187541
0.0197562
0.0202608
0.0203715
0.0201887
0.0198015
0.0192852
0.0186998
0.0180913
0.017493
0.0169267
0.0164051
0.0159343
0.0155187
0.0151609
0.0148556
0.0145964
0.0143805
0.0142031
0.0140579
0.0139407
0.013847
0.0137733
0.0137165
0.0136739
0.0136436
0.0136243
0.0136147
-0.0635932
-0.0635384
-0.0634268
-0.0632546
-0.0630152
-0.0627
-0.0622979
-0.0617943
-0.0611716
-0.0604087
-0.0594808
-0.0583588
-0.0570096
-0.0553967
-0.0534794
-0.0512115
-0.0485499
-0.0454527
-0.041881
-0.0378072
-0.033218
-0.0281334
-0.0226052
-0.0167314
-0.0106537
-0.00455853
0.00133654
0.00680592
0.0116431
0.0156918
0.0188569
0.0211267
0.0225684
0.0232962
0.0234492
0.0231713
0.0225938
0.0218284
0.020964
0.020069
0.0191928
0.0183681
0.0176139
0.0169372
0.016342
0.0158309
0.0153985
0.0150342
0.0147301
0.0144812
0.0142789
0.0141152
0.0139846
0.0138813
0.0138009
0.0137393
0.0136935
0.0136613
0.0136408
0.0136307
-0.0653286
-0.065289
-0.065208
-0.0650813
-0.0649025
-0.0646623
-0.0643493
-0.063948
-0.0634395
-0.0628006
-0.0620037
-0.0610155
-0.0597975
-0.0583055
-0.0564897
-0.0542915
-0.0516533
-0.0485157
-0.0448192
-0.0405146
-0.0355674
-0.0299728
-0.02378
-0.0170959
-0.0100914
-0.00300507
0.00387141
0.0102275
0.0157752
0.0202969
0.0236692
0.0258919
0.0270763
0.0273993
0.0270646
0.0262714
0.0251909
0.0239588
0.0226782
0.0214237
0.0202455
0.0191725
0.0182171
0.0173808
0.0166659
0.0160652
0.0155636
0.0151474
0.0148065
0.0145317
0.0143109
0.0141348
0.0139962
0.0138879
0.0138046
0.0137415
0.0136951
0.0136627
0.0136422
0.0136321
-0.0670995
-0.0670774
-0.0670314
-0.066957
-0.066848
-0.0666951
-0.0664864
-0.0662065
-0.0658354
-0.0653485
-0.0647156
-0.0639
-0.0628576
-0.061537
-0.0598783
-0.0578091
-0.0552545
-0.0521337
-0.0483592
-0.0438518
-0.0385442
-0.0323952
-0.0254367
-0.0177739
-0.00960958
-0.00125433
0.00689708
0.0144111
0.0208774
0.0259847
0.0295676
0.0316501
0.0324174
0.0321452
0.0311347
0.0296618
0.0279461
0.0261451
0.0243726
0.0227067
0.0211938
0.0198549
0.0186928
0.0177031
0.0168779
0.016196
0.0156356
0.0151791
0.0148128
0.0145218
0.0142914
0.0141108
0.0139707
0.0138631
0.0137815
0.0137205
0.0136764
0.013646
0.0136269
0.0136176
-0.0688878
-0.0688853
-0.0688784
-0.0688632
-0.0688334
-0.0687802
-0.068692
-0.0685533
-0.0683443
-0.0680397
-0.0676076
-0.0670087
-0.0661942
-0.0651057
-0.0636734
-0.0618105
-0.0594224
-0.0564016
-0.0526264
-0.0479757
-0.0423344
-0.0356087
-0.027784
-0.0189421
-0.00932092
0.000680835
0.0105184
0.0195774
0.0272584
0.0331032
0.0368832
0.0386669
0.0387664
0.0376183
0.0356709
0.033307
0.0307989
0.0283135
0.0259683
0.02384
0.0219663
0.0203537
0.0189916
0.017864
0.0169438
0.0161966
0.0155945
0.0151148
0.0147379
0.0144433
0.0142144
0.0140386
0.0139051
0.0138046
0.0137299
0.0136754
0.0136367
0.0136106
0.0135945
0.0135867
-0.0706737
-0.0706928
-0.0707292
-0.0707795
-0.070838
-0.0708969
-0.070945
-0.0709679
-0.0709467
-0.0708564
-0.0706649
-0.0703315
-0.0698044
-0.0690191
-0.0678976
-0.066339
-0.0642267
-0.0614231
-0.0577666
-0.0530811
-0.0471848
-0.0399041
-0.0311207
-0.0208676
-0.00938565
0.00277083
0.0148664
0.0260226
0.0353435
0.0421303
0.0460553
0.0472714
0.0463092
0.0438699
0.0406281
0.0371082
0.0336455
0.0303557
0.0273535
0.0247181
0.0224708
0.0205941
0.0190573
0.0178186
0.0168284
0.0160417
0.0154226
0.014942
0.0145727
0.01429
0.0140759
0.013916
0.0137981
0.0137119
0.01365
0.0136064
0.0135767
0.0135574
0.0135458
0.0135403
-0.0724361
-0.0724786
-0.072562
-0.0726837
-0.0728391
-0.0730213
-0.0732211
-0.0734254
-0.0736174
-0.073774
-0.0738647
-0.073849
-0.0736746
-0.0732737
-0.0725619
-0.0714273
-0.0697301
-0.0673026
-0.0639392
-0.0593956
-0.0533994
-0.0456556
-0.035887
-0.0239869
-0.0101633
0.00486849
0.020055
0.0341438
0.0457604
0.0537953
0.0577521
0.0579436
0.0552909
0.0509385
0.0459104
0.0409143
0.03635
0.0321174
0.0283812
0.0252139
0.0226053
0.020499
0.018829
0.0175188
0.0164978
0.0157085
0.0151054
0.0146511
0.0143112
0.0140591
0.0138753
0.0137436
0.0136509
0.0135869
0.0135438
0.0135159
0.0134987
0.0134887
0.0134833
0.013481
-0.0741526
-0.0742198
-0.0743534
-0.0745514
-0.0748108
-0.0751266
-0.0754915
-0.0758956
-0.0763248
-0.0767599
-0.0771737
-0.0775295
-0.0777769
-0.0778489
-0.0776584
-0.0770874
-0.0759778
-0.0741347
-0.0713064
-0.0671731
-0.0613504
-0.0533808
-0.0427218
-0.0289724
-0.0119678
0.00685929
0.0262526
0.0444703
0.0593439
0.0690488
0.0727974
0.0711998
0.0658712
0.0586905
0.0512306
0.0443789
0.0387087
0.0334053
0.0288541
0.0251596
0.0222395
0.0199723
0.0182365
0.0169169
0.0159218
0.015179
0.0146328
0.0142367
0.0139522
0.0137518
0.0136149
0.0135244
0.0134673
0.0134333
0.0134153
0.0134078
0.0134066
0.0134083
0.0134108
0.0134125
-0.0757993
-0.0758924
-0.0760782
-0.0763561
-0.0767249
-0.077182
-0.0777232
-0.0783422
-0.0790296
-0.0797714
-0.080547
-0.0813258
-0.0820645
-0.0827012
-0.0831527
-0.0833025
-0.0829851
-0.0819847
-0.08001
-0.0766697
-0.0714607
-0.0637343
-0.052648
-0.036971
-0.0214389
0.000833717
0.0246428
0.0481394
0.0682682
0.0820042
0.0876254
0.0856241
0.0782787
0.0684269
0.0584331
0.0497046
0.0406792
0.0339095
0.0285107
0.0243368
0.0212198
0.0189098
0.017212
0.0159726
0.0150782
0.0144437
0.0140019
0.0137002
0.0134999
0.0133738
0.013301
0.0132649
0.0132533
0.0132572
0.0132702
0.0132874
0.0133054
0.0133214
0.013333
0.0133392
-0.0773512
-0.0774705
-0.0777096
-0.0780692
-0.0785504
-0.0791534
-0.0798781
-0.0807229
-0.0816842
-0.0827556
-0.0839253
-0.0851733
-0.0864674
-0.0877583
-0.0889747
-0.0900125
-0.0907149
-0.0908606
-0.0901366
-0.0881015
-0.0841579
-0.0774989
-0.0669884
-0.0519268
-0.0298473
-0.00300628
0.0287161
0.0612936
0.0896312
0.108131
0.113508
0.107026
0.0933027
0.0774984
0.0632849
0.05213
0.0434903
0.0333618
0.0269129
0.0224674
0.0193802
0.0172107
0.0157015
0.0146621
0.0139618
0.0135056
0.0132194
0.0130514
0.0129654
0.012936
0.0129439
0.0129746
0.0130179
0.0130666
0.0131158
0.0131616
0.0132016
0.0132334
0.0132554
0.0132666
-0.078782
-0.0789274
-0.0792193
-0.0796604
-0.0802538
-0.0810037
-0.0819142
-0.0829894
-0.0842333
-0.0856487
-0.0872354
-0.0889874
-0.0908899
-0.0929135
-0.0950092
-0.0970987
-0.0990541
-0.100677
-0.101664
-0.101566
-0.0997233
-0.0952214
-0.0864349
-0.0696762
-0.046351
-0.0168622
0.0242138
0.0685451
0.109669
0.137612
0.145129
0.133724
0.111685
0.0879924
0.0683776
0.0533823
0.0406647
0.0302121
0.0233153
0.0192416
0.0165651
0.0148045
0.013681
0.0129872
0.0125868
0.0123828
0.0123056
0.0123105
0.0123674
0.012455
0.0125582
0.0126664
0.0127724
0.0128716
0.012961
0.0130383
0.0131022
0.0131513
0.0131842
0.0132008
-0.0800656
-0.080236
-0.0805787
-0.0810982
-0.0818004
-0.0826931
-0.0837858
-0.0850889
-0.0866148
-0.0883772
-0.0903898
-0.0926646
-0.0952091
-0.0980219
-0.101088
-0.104371
-0.107795
-0.111221
-0.114406
-0.116959
-0.11822
-0.117216
-0.11226
-0.095081
-0.071958
-0.0369557
0.0156639
0.0800099
0.145096
0.189696
0.196221
0.169231
0.128989
0.092487
0.0666574
0.0487225
0.0345801
0.0232299
0.0173912
0.0145017
0.0127113
0.01169
0.011181
0.0109904
0.0109957
0.011115
0.0112963
0.0115087
0.0117321
0.011953
0.0121628
0.0123562
0.0125305
0.012684
0.0128161
0.0129265
0.0130153
0.013082
0.0131266
0.0131487
-0.0811761
-0.0813696
-0.0817594
-0.0823518
-0.0831554
-0.0841819
-0.0854462
-0.0869656
-0.0887618
-0.0908601
-0.0932901
-0.0960842
-0.0992768
-0.102901
-0.106988
-0.111559
-0.116616
-0.122119
-0.127949
-0.133877
-0.139395
-0.14361
-0.145244
-0.130343
-0.111794
-0.0740772
-0.00902271
0.0854052
0.196502
0.27805
0.27917
0.214674
0.139782
0.0848922
0.0531629
0.0337424
0.0218552
0.0125207
0.00920857
0.00830452
0.00791613
0.00798071
0.00831178
0.00876628
0.00926543
0.00976542
0.0102433
0.010688
0.0110935
0.0114576
0.0117802
0.0120628
0.0123075
0.0125165
0.012692
0.0128357
0.0129492
0.0130338
0.0130896
0.0131174
-0.0820894
-0.0823032
-0.0827347
-0.0833915
-0.0842852
-0.0854312
-0.0868494
-0.0885644
-0.0906067
-0.0930138
-0.0958318
-0.0991146
-0.102926
-0.107339
-0.112437
-0.118316
-0.125076
-0.132818
-0.141608
-0.151498
-0.162372
-0.173699
-0.185287
-0.176812
-0.171081
-0.13831
-0.0689936
0.0629815
0.26395
0.44304
0.420561
0.257211
0.121993
0.0499168
0.0207535
0.00798915
0.00281626
-0.001247
-0.000714848
0.00104199
0.00250135
0.00393256
0.00526884
0.00646101
0.00750759
0.00842053
0.00921343
0.00989983
0.0104917
0.0110003
0.0114356
0.0118062
0.0121199
0.0123829
0.0126002
0.0127757
0.012913
0.0130141
0.0130809
0.0131139
-0.082784
-0.0830147
-0.0834807
-0.084191
-0.0851596
-0.0864053
-0.0879528
-0.0898329
-0.0920847
-0.0947572
-0.0979113
-0.101623
-0.105984
-0.111108
-0.117135
-0.124238
-0.132633
-0.142589
-0.154405
-0.168499
-0.185377
-0.205218
-0.229773
-0.233394
-0.252067
-0.242001
-0.199316
-0.0580208
0.289678
0.787929
0.653177
0.223018
0.0247514
-0.0305773
-0.0346068
-0.0280435
-0.0209328
-0.0165389
-0.0113066
-0.00652267
-0.00298394
-6.87975e-05
0.00232148
0.00426588
0.0058617
0.00718328
0.00828301
0.00920147
0.00997017
0.0106146
0.0111548
0.0116069
0.0119841
0.0122963
0.0125515
0.0127559
0.0129143
0.0130306
0.0131069
0.0131448
-0.0832425
-0.0834858
-0.0839775
-0.084728
-0.085753
-0.087074
-0.0887195
-0.0907256
-0.0931383
-0.096016
-0.099433
-0.103483
-0.108284
-0.113984
-0.120775
-0.128903
-0.138693
-0.150585
-0.165124
-0.183099
-0.205739
-0.234101
-0.27247
-0.293313
-0.346358
-0.383892
-0.434459
-0.44193
-0.162795
1.08568
0.451646
-0.205816
-0.234604
-0.164605
-0.107052
-0.0674989
-0.0452896
-0.0308535
-0.0209837
-0.0133539
-0.00784737
-0.00356252
-0.000219386
0.00239595
0.00447999
0.00616245
0.00753059
0.00865042
0.0095718
0.0103328
0.0109627
0.0114842
0.0119151
0.0122688
0.0125558
0.0127841
0.0129603
0.0130889
0.0131734
0.0132151
-0.0834519
-0.083703
-0.0842107
-0.0849861
-0.0860462
-0.0874142
-0.089121
-0.0912065
-0.0937214
-0.0967307
-0.100318
-0.10459
-0.109683
-0.115771
-0.123084
-0.131923
-0.142691
-0.155968
-0.172498
-0.193347
-0.220348
-0.255167
-0.304351
-0.343253
-0.429548
-0.527291
-0.722803
-1.14302
-2.5964
-2.69887
-7.79889
-1.71889
-0.59272
-0.292166
-0.16663
-0.0976921
-0.0640579
-0.0412226
-0.0279884
-0.0183607
-0.0113892
-0.00609751
-0.00205562
0.00105415
0.00350386
0.00545763
0.00702726
0.00829836
0.00933458
0.0101834
0.0108807
0.0114544
0.0119256
0.0123102
0.0126208
0.0128669
0.0130561
0.0131941
0.0132843
0.013329
-0.0834049
-0.0836585
-0.0841715
-0.0849554
-0.0860272
-0.0874111
-0.0891388
-0.091252
-0.0938034
-0.0968611
-0.100512
-0.10487
-0.110079
-0.116325
-0.123856
-0.132998
-0.144186
-0.158069
-0.175486
-0.197597
-0.226522
-0.263902
-0.317361
-0.368832
-0.471022
-0.605849
-0.870715
-1.43109
-2.98133
-1.60818
-6.99786
-1.06806
-0.523505
-0.294238
-0.177856
-0.107197
-0.071808
-0.0454812
-0.0310021
-0.0207107
-0.013082
-0.00734026
-0.00296598
0.000392439
0.0030393
0.00514316
0.00682596
0.00818385
0.00928691
0.0101873
0.0109248
0.0115296
0.0120248
0.0124278
0.0127523
0.0130088
0.0132056
0.0133487
0.0134425
0.0134888
-0.0830997
-0.0833505
-0.0838578
-0.0846328
-0.0856922
-0.0870597
-0.0887664
-0.0908532
-0.0933724
-0.0963907
-0.0999936
-0.104291
-0.109426
-0.115581
-0.122995
-0.131988
-0.14297
-0.156566
-0.173589
-0.195067
-0.223045
-0.258475
-0.308546
-0.363672
-0.459849
-0.591727
-0.811862
-1.16555
-1.7494
0.169413
-0.24265
-0.202234
-0.145047
-0.096091
-0.0676505
-0.0433201
-0.029709
-0.0201394
-0.0127363
-0.00716135
-0.00285479
0.000482117
0.00313877
0.00525707
0.00695503
0.00832812
0.00944496
0.0103571
0.0111043
0.0117169
0.0122182
0.0126257
0.0129533
0.013212
0.0134104
0.0135547
0.0136489
0.0136957
-0.0825402
-0.0827829
-0.0832735
-0.0840226
-0.0850458
-0.0863649
-0.0880092
-0.0900167
-0.092436
-0.0953285
-0.0987724
-0.102868
-0.107743
-0.113562
-0.120535
-0.128942
-0.139121
-0.151591
-0.167027
-0.186157
-0.210692
-0.240612
-0.281376
-0.331985
-0.407253
-0.510647
-0.653519
-0.81666
-1.14683
-1.88183
-0.647177
-0.129882
-0.114809
-0.0961073
-0.0725935
-0.0546961
-0.0361591
-0.0248243
-0.0170013
-0.010537
-0.00565567
-0.00176443
0.00130511
0.00379553
0.00579802
0.00741609
0.00873406
0.00981173
0.0106954
0.0114215
0.0120182
0.012507
0.0129046
0.0132244
0.013477
0.0136707
0.0138115
0.0139037
0.0139494
-0.0817357
-0.0819651
-0.0824289
-0.0831361
-0.0841006
-0.0853417
-0.0868851
-0.0887642
-0.0910212
-0.0937088
-0.0968929
-0.100657
-0.105108
-0.110378
-0.116633
-0.124091
-0.132984
-0.143681
-0.156648
-0.172244
-0.191707
-0.214232
-0.242743
-0.283584
-0.332652
-0.402933
-0.494473
-0.571251
-0.562354
-0.850721
1.03627
-0.0588858
0.00628623
-0.0340086
-0.0457201
-0.0443464
-0.0370437
-0.0260945
-0.0176026
-0.0120469
-0.00693859
-0.00309195
0.000147399
0.00276468
0.0049488
0.00672732
0.00818451
0.00938587
0.0103766
0.0111949
0.0118713
0.0124296
0.0128884
0.0132624
0.0135637
0.0138019
0.0139848
0.014118
0.0142051
0.0142483
-0.0807001
-0.0809119
-0.0813395
-0.0819907
-0.0828769
-0.0840139
-0.0854229
-0.0871311
-0.0891722
-0.0915878
-0.0944282
-0.0977564
-0.101651
-0.106208
-0.111537
-0.117791
-0.125081
-0.133609
-0.143621
-0.155123
-0.168815
-0.183553
-0.199534
-0.22844
-0.253215
-0.294475
-0.354471
-0.425009
-0.503361
-0.939353
0.00955501
0.0923652
0.089745
0.0250535
-0.0032003
-0.0166836
-0.0182407
-0.015004
-0.00929758
-0.00610854
-0.00249124
0.000178225
0.00265353
0.00471055
0.00649809
0.007977
0.00921373
0.0102505
0.0111161
0.0118385
0.012441
0.0129415
0.0133549
0.0136931
0.0139663
0.0141828
0.0143493
0.0144706
0.0145503
0.0145898
-0.0794517
-0.0796421
-0.080026
-0.0806095
-0.0814012
-0.082413
-0.0836607
-0.0851641
-0.0869472
-0.0890388
-0.0914727
-0.0942887
-0.097536
-0.101272
-0.10555
-0.110457
-0.115992
-0.122201
-0.129134
-0.136536
-0.14456
-0.152172
-0.157133
-0.174236
-0.178731
-0.191812
-0.212598
-0.29539
-0.400727
-1.03624
-0.187575
0.140529
0.0828278
0.058614
0.0313891
0.0076992
-0.000488432
-0.00415697
-0.000878517
0.000108937
0.00230156
0.00380846
0.0055123
0.00697394
0.00832554
0.00946392
0.0104443
0.0112849
0.0119984
0.0126029
0.013113
0.0135405
0.0138959
0.0141882
0.0144253
0.0146137
0.014759
0.0148653
0.014935
0.0149698
-0.0780122
-0.0781784
-0.0785129
-0.07902
-0.0797053
-0.0805764
-0.0816432
-0.0829176
-0.0844136
-0.0861469
-0.0881344
-0.0903935
-0.092944
-0.0958065
-0.0989821
-0.102498
-0.106269
-0.110221
-0.114243
-0.117961
-0.121026
-0.122858
-0.11931
-0.126133
-0.114427
-0.0983827
-0.0501196
-0.0397923
-0.435469
-1.11378
-0.124952
-0.063645
0.0942079
0.0980187
0.068734
0.0292527
0.0152828
0.00573168
0.0070271
0.00611105
0.00706211
0.00751855
0.00851298
0.00939951
0.0103169
0.0111038
0.011814
0.0124425
0.0129887
0.0134614
0.0138668
0.0142106
0.0144989
0.0147377
0.0149324
0.0150878
0.0152081
0.0152962
0.0153544
0.0153834
-0.0764059
-0.076546
-0.0768275
-0.0772527
-0.077824
-0.0785449
-0.0794191
-0.0804509
-0.0816442
-0.0830025
-0.0845267
-0.0862139
-0.0880564
-0.0900403
-0.0921234
-0.0942949
-0.0964141
-0.0983334
-0.0998013
-0.100486
-0.0996361
-0.0973612
-0.0882003
-0.0875222
-0.0657558
-0.0299186
0.0675712
0.302554
0.459578
1.40309
0.282236
0.00613808
0.226517
0.186984
0.12091
0.0502356
0.0289883
0.0143173
0.0140295
0.0115785
0.0115304
0.0111005
0.0114906
0.0118606
0.012374
0.0128204
0.0132638
0.0136776
0.0140519
0.014387
0.0146813
0.0149349
0.0151503
0.0153305
0.0154785
0.0155972
0.0156895
0.0157575
0.0158025
0.0158251
-0.0746587
-0.0747719
-0.0749989
-0.0753397
-0.0757941
-0.0763611
-0.077039
-0.0778246
-0.0787129
-0.0796958
-0.0807605
-0.0818862
-0.0830405
-0.0841843
-0.0852461
-0.0861903
-0.0868388
-0.0870203
-0.0863782
-0.0847507
-0.0810951
-0.0763484
-0.0643719
-0.0600054
-0.0372004
-0.00427078
0.0729472
0.538117
2.92328
4.95696
2.43808
0.667205
0.471788
0.32886
0.183974
0.0709472
0.0408801
0.0213033
0.0198728
0.0162916
0.0155146
0.0143913
0.0143123
0.014253
0.0144115
0.0145448
0.0147385
0.0149472
0.0151541
0.0153527
0.0155346
0.0156959
0.0158358
0.0159547
0.0160534
0.0161333
0.0161959
0.0162422
0.0162732
0.0162888
-0.0727975
-0.072884
-0.0730567
-0.0733139
-0.0736524
-0.0740677
-0.0745529
-0.0750983
-0.0756909
-0.0763125
-0.0769379
-0.0775333
-0.0780497
-0.0784313
-0.0785785
-0.078441
-0.0778239
-0.0765812
-0.0742726
-0.0709826
-0.0654514
-0.059499
-0.0468897
-0.0429076
-0.0289631
-0.0194519
-0.0197103
-0.0455154
-0.27659
2.15131
3.51973
1.42614
0.764705
0.441137
0.226773
0.0873703
0.0501832
0.0266134
0.0243955
0.020118
0.0189052
0.0173026
0.0168995
0.0165017
0.0163617
0.0162192
0.0161906
0.0162124
0.0162638
0.0163327
0.0164056
0.0164759
0.0165407
0.016598
0.0166468
0.016687
0.0167191
0.0167432
0.0167595
0.0167679
-0.070849
-0.0709098
-0.0710303
-0.0712072
-0.0714349
-0.0717057
-0.0720082
-0.0723274
-0.0726435
-0.0729291
-0.0731504
-0.0732673
-0.0732175
-0.0729322
-0.072286
-0.0712252
-0.0695507
-0.0671755
-0.06358
-0.059117
-0.0523355
-0.0459407
-0.0340065
-0.0333001
-0.0341204
-0.0606529
-0.204227
-0.602228
-1.39483
0.394119
3.97811
2.05013
0.938116
0.447329
0.223776
0.0936884
0.0554097
0.030186
0.0276264
0.0230755
0.0216835
0.0198088
0.019215
0.0185582
0.018171
0.0177953
0.0175805
0.017441
0.0173537
0.0173037
0.0172744
0.0172583
0.0172508
0.0172481
0.0172481
0.0172493
0.017251
0.0172529
0.0172546
0.0172558
-0.0688392
-0.068876
-0.0689479
-0.0690502
-0.0691754
-0.0693131
-0.0694484
-0.069562
-0.0696284
-0.069614
-0.0694805
-0.069182
-0.0686459
-0.0677961
-0.0664864
-0.0646652
-0.0621299
-0.0588697
-0.0542781
-0.0489596
-0.0412653
-0.0347269
-0.0237291
-0.0267968
-0.0406526
-0.0902592
-0.288216
-0.679911
-0.921486
-2.39978
1.74787
1.45431
0.569619
0.335502
0.186997
0.0883762
0.0557442
0.0321752
0.029775
0.0253088
0.0239246
0.0219377
0.0212502
0.0203961
0.0198082
0.0192446
0.0188817
0.0186087
0.0184019
0.0182461
0.0181238
0.018028
0.0179531
0.0178939
0.0178473
0.017811
0.0177835
0.0177638
0.0177514
0.0177455
-0.0667923
-0.0668075
-0.0668356
-0.0668709
-0.0669047
-0.0669242
-0.0669118
-0.0668451
-0.0666957
-0.066426
-0.0659934
-0.0653469
-0.0644084
-0.0631015
-0.0612625
-0.0588425
-0.0556271
-0.0516867
-0.0463135
-0.0403361
-0.0318817
-0.0251648
-0.0145297
-0.0198075
-0.0385303
-0.0834918
-0.220795
-0.615228
-2.0108
-8.22092
-4.50495
-0.457659
-0.0304094
0.172938
0.140085
0.0754798
0.0519387
0.033052
0.0311942
0.0270566
0.0257689
0.0237535
0.0230162
0.0220097
0.0212646
0.0205567
0.0200805
0.0196999
0.0193927
0.0191447
0.0189399
0.0187725
0.0186363
0.0185252
0.0184354
0.0183638
0.0183088
0.0182687
0.0182428
0.0182302
-0.0647305
-0.0647269
-0.0647171
-0.0646947
-0.0646499
-0.0645684
-0.0644309
-0.0642142
-0.0638878
-0.0634112
-0.0627377
-0.0618132
-0.0605592
-0.0589044
-0.0566712
-0.0538111
-0.0500858
-0.0456445
-0.0396696
-0.0331859
-0.0240432
-0.0169526
-0.00581824
-0.01127
-0.0280859
-0.0496598
-0.0191467
-0.243256
-2.4611
-7.55904
-7.14367
-2.07352
-0.192304
0.100154
0.109765
0.0615186
0.046138
0.0335368
0.0323182
0.0285871
0.0273688
0.0253283
0.0245318
0.0233954
0.0225327
0.0217267
0.0211722
0.0207068
0.0203156
0.0199887
0.019712
0.0194818
0.019291
0.0191331
0.0190039
0.0189001
0.0188196
0.0187605
0.0187221
0.0187032
-0.0626734
-0.0626543
-0.0626131
-0.0625431
-0.0624339
-0.0622704
-0.0620335
-0.0616994
-0.0612362
-0.0606021
-0.0597474
-0.0586178
-0.0571364
-0.0552423
-0.0527484
-0.0496046
-0.0455358
-0.0407648
-0.0343692
-0.0275506
-0.0178109
-0.0102078
0.00207901
-0.00221907
-0.0150806
-0.0129599
0.129792
0.468061
1.21971
1.88858
-1.8654
-1.1451
0.0442695
0.141764
0.110253
0.0526451
0.0410671
0.0343586
0.0335214
0.0301065
0.0288295
0.0267162
0.0258244
0.0245723
0.0236257
0.0227617
0.0221581
0.0216267
0.0211647
0.0207707
0.0204327
0.0201483
0.0199097
0.0197102
0.0195458
0.0194129
0.0193091
0.0192327
0.0191826
0.0191579
-0.0606377
-0.0606064
-0.0605407
-0.0604338