/*--------------------------------*- C++ -*----------------------------------*\
  =========                 |
  \\      /  F ield         | OpenFOAM: The Open Source CFD Toolbox
   \\    /   O peration     | Website:  https://openfoam.org
    \\  /    A nd           | Version:  12
     \\/     M anipulation  |
\*---------------------------------------------------------------------------*/
FoamFile
{
    format      ascii;
    class       surfaceScalarField;
    location    "40";
    object      phi;
}
// * * * * * * * * * * * * * * * * * * * * * * * * * * * * * * * * * * * * * //

dimensions      [0 3 -1 0 0 0 0];

internalField   nonuniform List<scalar> 
32440
(
-1.09649e-06
0.0399891
-1.96178e-07
0.0399891
-3.29706e-06
0.0399911
-2.39904e-06
0.0399891
-5.5019e-06
0.0399911
-4.60575e-06
0.0399991
-5.70998e-06
0.0400111
-6.81283e-06
0.0400111
-5.91144e-06
0.0400111
-5.00311e-06
0.0400111
-4.08534e-06
0.0400111
-9.15329e-06
0.0400051
-1.02004e-05
0.040001
-1.12203e-05
0.040001
-1.22059e-05
0.040001
-1.31499e-05
0.0400009
-1.40442e-05
0.0400009
-1.48806e-05
0.0400008
-1.56509e-05
0.0400008
-1.63466e-05
0.0400007
-1.6959e-05
0.0400006
-1.74799e-05
0.0400005
-1.79036e-05
0.0400004
-1.82251e-05
0.0400003
-1.84411e-05
0.0400002
-1.85501e-05
0.0400001
-1.85518e-05
0.04
-1.84479e-05
0.0399999
-1.98439e-05
0.0400014
-2.52038e-05
0.0400054
-2.63518e-05
0.0400011
-2.60777e-05
0.0399997
-2.55301e-05
0.0399995
-2.49182e-05
0.0399994
-2.32509e-05
0.0399983
-2.25368e-05
0.0399993
-2.17847e-05
0.0399992
-2.10024e-05
0.0399992
-2.01972e-05
0.0399992
-1.93754e-05
0.0399992
-1.8543e-05
0.0399992
-1.7705e-05
0.0399992
-1.68658e-05
0.0399992
-1.6029e-05
0.0399992
-1.51982e-05
0.0399992
-1.43757e-05
0.0399992
-1.35635e-05
0.0399992
-1.27629e-05
0.0399992
-1.19741e-05
0.0399992
-1.11976e-05
0.0399992
-1.04339e-05
0.0399992
-1.16822e-05
0.0400012
-1.69425e-05
0.0400053
-1.02144e-05
0.0400053
-5.49606e-06
0.0400073
-4.78571e-06
0.0400093
-2.08239e-06
0.0399973
-1.38435e-06
0.0399873
-6.89758e-07
0.0399893
0.0399873
-2.16328e-06
0.0399913
-4.33443e-06
0.0399913
-6.50818e-06
0.0399933
-8.6855e-06
0.0399913
-8.86637e-06
0.0399913
-9.05035e-06
0.0399993
-9.23538e-06
0.0400113
-1.14173e-05
0.0400133
-1.159e-05
0.0400113
-9.74674e-06
0.0400092
-7.87478e-06
0.0400092
-1.79636e-05
0.0400152
-2.39998e-05
0.0400071
-2.5965e-05
0.040003
-2.78434e-05
0.0400029
-2.96135e-05
0.0400027
-3.1254e-05
0.0400025
-3.27439e-05
0.0400023
-3.40634e-05
0.0400021
-3.51908e-05
0.0400018
-3.61033e-05
0.0400015
-3.67879e-05
0.0400012
-3.72316e-05
0.0400009
-3.74266e-05
0.0400005
-3.737e-05
0.0400002
-3.68643e-05
0.0399996
-3.63179e-05
0.0399995
-3.59454e-05
0.0399995
-3.63611e-05
0.0400018
-4.08936e-05
0.0400099
-4.10487e-05
0.0400013
-3.95782e-05
0.0399983
-3.80031e-05
0.0399979
-3.63512e-05
0.0399977
-3.58499e-05
0.0399978
-3.41249e-05
0.0399976
-3.23965e-05
0.0399975
-3.06839e-05
0.0399975
-2.90035e-05
0.0399975
-2.73676e-05
0.0399975
-2.57855e-05
0.0399976
-2.42641e-05
0.0399976
-2.28077e-05
0.0399977
-2.1419e-05
0.0399978
-1.80973e-05
0.0399958
-1.6841e-05
0.0399979
-1.56479e-05
0.039998
-1.45151e-05
0.0399981
-1.34393e-05
0.0399981
-1.24153e-05
0.0399982
-1.34383e-05
0.0400003
-1.65031e-05
0.0400043
-1.76072e-05
0.0400064
-1.47455e-05
0.0400024
-1.19119e-05
0.0400044
-9.10153e-06
0.0400065
-2.30935e-06
0.0399905
-3.53007e-06
0.0399885
-7.59341e-07
0.0399865
0.0399866
-2.60604e-06
0.0399939
-5.21928e-06
0.0399939
-5.83718e-06
0.0399939
-8.4616e-06
0.0399939
-1.30928e-05
0.0399959
-9.72849e-06
0.0399959
-1.2369e-05
0.0400139
-1.30049e-05
0.0400139
-1.363e-05
0.0400119
-1.4229e-05
0.0400098
-1.47898e-05
0.0400098
-2.52857e-05
0.0400256
-2.9708e-05
0.0400115
-3.20281e-05
0.0400053
-3.42115e-05
0.040005
-3.62321e-05
0.0400047
-3.80564e-05
0.0400044
-3.96528e-05
0.0400039
-3.69919e-05
0.0399994
-4.20426e-05
0.0400069
-4.27711e-05
0.0400023
-4.31577e-05
0.0400016
-4.31882e-05
0.0400009
-4.28555e-05
0.0400002
-4.21601e-05
0.0399995
-4.11125e-05
0.0399986
-3.97323e-05
0.0399981
-3.80465e-05
0.0399978
-3.76957e-05
0.0400015
-4.12068e-05
0.0400134
-4.03703e-05
0.0400005
-3.80928e-05
0.039996
-3.55395e-05
0.0399953
-3.29593e-05
0.0399952
-2.9397e-05
0.0399943
-2.68916e-05
0.0399951
-2.44793e-05
0.0399951
-2.21862e-05
0.0399952
-2.00328e-05
0.0399954
-1.80339e-05
0.0399955
-1.61987e-05
0.0399957
-1.45309e-05
0.039996
-1.30297e-05
0.0399962
-1.16906e-05
0.0399964
-1.25064e-05
0.0399967
-1.14683e-05
0.0399969
-1.05648e-05
0.0399971
-7.78428e-06
0.0399953
-7.11481e-06
0.0399975
-8.54417e-06
0.0399996
-1.00604e-05
0.0400018
-1.96508e-05
0.0400139
-1.33107e-05
0.04
-1.10264e-05
0.0400001
-8.78792e-06
0.0400022
-4.58678e-06
0.0400023
-4.14294e-07
0.0399863
-2.62666e-07
0.0399884
-1.24676e-07
0.0399864
0.0399864
-3.12419e-06
0.039997
-6.25464e-06
0.039997
-9.39277e-06
0.039997
-1.25413e-05
0.039997
-1.37007e-05
0.0399971
-1.68698e-05
0.0399991
-1.40438e-05
0.0400111
-1.52187e-05
0.0400151
-1.6377e-05
0.040013
-1.95066e-05
0.040013
-2.258e-05
0.0400128
-2.95758e-05
0.0400326
-3.64757e-05
0.0400184
-4.12318e-05
0.0400101
-4.38108e-05
0.0400076
-4.41634e-05
0.0400051
-4.42519e-05
0.0400044
-3.60349e-05
0.0399957
-3.14651e-05
0.0399949
-4.44758e-05
0.0400199
-5.10559e-05
0.0400088
-5.11708e-05
0.0400017
-5.08001e-05
0.0400005
-4.99327e-05
0.0399993
-4.85782e-05
0.0399981
-4.67529e-05
0.0399967
-4.44891e-05
0.0399958
-4.20335e-05
0.0399954
-4.04374e-05
0.0399999
-4.28563e-05
0.0400158
-4.09069e-05
0.0399985
-3.75232e-05
0.0399926
-3.36913e-05
0.0399915
-3.00827e-05
0.0399915
-2.77633e-05
0.039992
-2.43899e-05
0.0399917
-2.12084e-05
0.0399919
-1.8255e-05
0.0399923
-1.35573e-05
0.0399907
-1.11323e-05
0.0399931
-8.98829e-06
0.0399936
-7.12423e-06
0.0399941
-5.53491e-06
0.0399946
-4.20814e-06
0.0399951
-3.12853e-06
0.0399956
-2.27862e-06
0.039996
-1.63851e-06
0.0399965
-3.18687e-06
0.0399968
-9.03764e-07
0.0399952
-7.68439e-07
0.0399995
-1.07606e-05
0.0400118
-1.08658e-05
0.040014
-1.10698e-05
0.0400002
-9.35255e-06
0.0399984
-7.70013e-06
0.0400006
-9.99898e-08
0.0399947
-5.39902e-07
0.0399868
9.91098e-07
0.0399868
5.02983e-07
0.0399869
0.0399869
-3.70563e-06
0.0400007
-7.4172e-06
0.0400007
-1.11404e-05
0.0400007
-1.48784e-05
0.0400008
-1.86349e-05
0.0400008
-2.04063e-05
0.0400008
-1.61878e-05
0.0400069
-1.99719e-05
0.0400189
-2.37442e-05
0.0400168
-2.54828e-05
0.0400147
-2.716e-05
0.0400145
-3.07415e-05
0.0400362
-4.21982e-05
0.0400299
-4.74845e-05
0.0400153
-5.05434e-05
0.0400107
-5.33227e-05
0.0400079
-4.97636e-05
0.0400009
-3.78177e-05
0.0399838
-4.53919e-05
0.0400024
-5.643e-05
0.0400309
-6.0914e-05
0.0400133
-6.07932e-05
0.0400016
-6.0044e-05
0.0399998
-5.86548e-05
0.0399979
-5.66277e-05
0.0399961
-5.39909e-05
0.0399941
-5.07904e-05
0.0399926
-4.7089e-05
0.0399917
-4.45723e-05
0.0399973
-4.58075e-05
0.0400171
-4.2653e-05
0.0399954
-3.78611e-05
0.0399878
-3.32528e-05
0.0399869
-2.83245e-05
0.0399866
-2.2961e-05
0.0399866
-1.86369e-05
0.0399874
-1.46145e-05
0.0399879
-1.09415e-05
0.0399886
-9.64761e-06
0.0399894
-6.75274e-06
0.0399902
-4.26103e-06
0.0399911
-1.68728e-07
0.03999
1.53688e-06
0.0399929
2.87641e-06
0.0399938
3.87264e-06
0.0399946
4.55486e-06
0.0399954
4.95295e-06
0.0399961
5.09407e-06
0.0399967
3.01125e-06
0.0399973
-5.26695e-06
0.0400078
-1.77094e-05
0.0400242
-6.31006e-06
0.0400026
-5.03204e-06
0.039999
-5.85497e-06
0.0399992
-2.76106e-06
0.0399975
4.26691e-06
0.0399877
3.24454e-06
0.0399878
2.18449e-06
0.0399879
1.10022e-06
0.039988
0.039988
-4.31369e-06
0.040005
-6.63398e-06
0.040003
-1.09715e-05
0.0400051
-1.53312e-05
0.0400051
-1.97165e-05
0.0400052
-2.41266e-05
0.0400053
-2.45555e-05
0.0400073
-2.29948e-05
0.0400173
-2.74296e-05
0.0400212
-3.18337e-05
0.0400191
-3.4181e-05
0.0400169
-2.04241e-05
0.0400225
-4.24873e-05
0.0400519
-5.43665e-05
0.0400272
-5.99753e-05
0.0400163
-6.12455e-05
0.0400091
-5.61104e-05
0.0399957
-5.44875e-05
0.0399821
-6.0273e-05
0.0400082
-6.94109e-05
0.0400401
-7.18516e-05
0.0400158
-7.1531e-05
0.0400013
-7.04135e-05
0.0399987
-6.84839e-05
0.039996
-6.57489e-05
0.0399933
-6.22501e-05
0.0399906
-5.78459e-05
0.0399882
-5.34226e-05
0.0399873
-4.94792e-05
0.0399934
-4.9427e-05
0.040017
-4.49549e-05
0.0399909
-3.90487e-05
0.0399819
-3.27586e-05
0.0399806
-2.70101e-05
0.0399809
-2.23176e-05
0.0399819
-1.69748e-05
0.039982
-1.00575e-05
0.039981
-5.62087e-06
0.0399841
-1.70133e-06
0.0399854
1.68108e-06
0.0399868
4.52655e-06
0.0399883
4.84333e-06
0.0399897
6.65827e-06
0.0399911
9.99635e-06
0.0399904
1.0897e-05
0.0399937
1.13958e-05
0.0399949
1.1535e-05
0.0399959
1.13545e-05
0.0399969
8.89544e-06
0.0399997
-1.80071e-06
0.0400185
-7.0865e-07
0.0400231
1.94753e-07
0.0400017
-1.04626e-06
0.0400002
-4.0818e-07
0.0399986
8.13281e-06
0.0399889
6.59483e-06
0.0399892
4.99728e-06
0.0399894
3.35623e-06
0.0399895
1.68674e-06
0.0399896
0.0399897
-4.92055e-06
0.0400099
-9.85133e-06
0.040008
-1.4805e-05
0.04001
-1.979e-05
0.0400101
-2.48122e-05
0.0400102
-2.98724e-05
0.0400103
-3.29656e-05
0.0400104
-3.00777e-05
0.0400144
-3.32001e-05
0.0400244
-3.63004e-05
0.0400222
-4.13431e-05
0.0400219
-4.22795e-05
0.0400234
-4.50317e-05
0.0400547
-6.35749e-05
0.0400458
-6.78112e-05
0.0400205
-6.5654e-05
0.040007
-4.90289e-05
0.0399791
-6.77868e-05
0.0400009
-7.3846e-05
0.0400143
-8.1127e-05
0.0400473
-8.35602e-05
0.0400182
-8.30592e-05
0.0400008
-8.15766e-05
0.0399972
-7.90866e-05
0.0399935
-7.56103e-05
0.0399899
-7.09804e-05
0.039986
-6.5876e-05
0.0399831
-5.98054e-05
0.0399812
-5.47123e-05
0.0399883
-5.32339e-05
0.0400155
-4.72982e-05
0.039985
-3.97406e-05
0.0399743
-3.24427e-05
0.0399733
-2.49652e-05
0.0399734
-1.7249e-05
0.0399742
-1.08115e-05
0.0399756
-6.94376e-06
0.0399771
-1.71201e-06
0.0399789
2.84651e-06
0.0399809
8.71437e-06
0.039981
1.18975e-05
0.0399851
1.44142e-05
0.0399872
1.6299e-05
0.0399892
1.55969e-05
0.0399911
1.83522e-05
0.0399909
1.8623e-05
0.0399946
1.84571e-05
0.0399961
1.79084e-05
0.0399974
5.03152e-06
0.0400126
-1.21175e-05
0.0400356
4.46469e-06
0.0400065
4.84463e-06
0.0400013
5.05898e-06
0.04
1.11353e-05
0.0399925
9.10038e-06
0.039991
6.97813e-06
0.0399913
4.78966e-06
0.0399916
2.5534e-06
0.0399918
2.28642e-06
0.0399899
0.039992
-3.50759e-06
0.0400134
-1.10326e-05
0.0400155
-1.65876e-05
0.0400156
-2.01848e-05
0.0400137
-2.58354e-05
0.0400159
-3.15418e-05
0.040016
-3.73e-05
0.0400161
-3.91026e-05
0.0400162
-3.89279e-05
0.0400242
-4.47518e-05
0.040028
-5.05295e-05
0.0400277
-5.22239e-05
0.0400251
-3.37508e-05
0.0400362
-6.09627e-05
0.040073
-7.9881e-05
0.0400394
-8.03553e-05
0.0400074
-7.62949e-05
0.0399751
-8.15322e-05
0.0400061
-8.59642e-05
0.0400187
-9.34602e-05
0.0400548
-9.59251e-05
0.0400207
-9.52763e-05
0.0400001
-9.34269e-05
0.0399953
-9.03606e-05
0.0399904
-8.60722e-05
0.0399856
-8.0613e-05
0.0399805
-7.40885e-05
0.0399766
-6.66369e-05
0.0399737
-6.0224e-05
0.0399819
-5.69341e-05
0.0400122
-4.93613e-05
0.0399774
-4.03739e-05
0.0399654
-3.13087e-05
0.0399642
-2.25641e-05
0.0399647
-1.3312e-05
0.0399649
-5.69547e-06
0.039968
1.17891e-06
0.0399702
7.2355e-06
0.0399729
1.24369e-05
0.0399757
1.47731e-05
0.0399786
2.02567e-05
0.0399796
2.29257e-05
0.0399845
2.4822e-05
0.0399873
2.60106e-05
0.0399899
2.65562e-05
0.0399904
2.65239e-05
0.0399946
2.59808e-05
0.0399966
2.10017e-05
0.0400024
7.64809e-06
0.040026
7.96682e-06
0.0400353
9.98963e-06
0.0400045
9.79333e-06
0.0400015
1.74136e-05
0.0399924
1.68849e-05
0.039993
1.42349e-05
0.0399936
1.14913e-05
0.0399941
8.6775e-06
0.0399944
5.81343e-06
0.0399946
2.91739e-06
0.0399928
0.0399949
-6.07052e-06
0.0400195
-1.2163e-05
0.0400216
-1.62954e-05
0.0400197
-2.44889e-05
0.0400219
-2.87518e-05
0.0400201
-3.50956e-05
0.0400224
-4.15194e-05
0.0400226
-4.80151e-05
0.0400227
-4.65556e-05
0.0400227
-5.11262e-05
0.0400326
-5.76792e-05
0.0400342
-6.41484e-05
0.0400316
-6.44592e-05
0.0400365
-7.84871e-05
0.040087
-8.61865e-05
0.0400471
-8.14113e-05
0.0400027
-9.00175e-05
0.0399837
-9.5835e-05
0.0400119
-9.87164e-05
0.0400216
-0.000106501
0.0400626
-0.000109086
0.0400232
-0.000108325
0.0399994
-0.000106127
0.0399931
-0.000102443
0.0399868
-9.72722e-05
0.0399804
-9.06861e-05
0.0399739
-8.27885e-05
0.0399687
-7.39539e-05
0.0399649
-6.54116e-05
0.0399734
-6.04946e-05
0.0400073
-5.10526e-05
0.0399679
-4.02227e-05
0.0399545
-2.91911e-05
0.0399532
-1.8806e-05
0.0399543
-1.02795e-05
0.0399564
-1.3841e-06
0.0399591
6.56018e-06
0.0399623
1.54713e-05
0.0399639
2.1316e-05
0.0399698
2.60939e-05
0.0399739
2.78294e-05
0.0399779
3.25803e-05
0.0399798
3.44156e-05
0.0399855
3.54108e-05
0.0399889
3.36544e-05
0.0399921
3.52291e-05
0.039993
3.22286e-05
0.0399996
1.67268e-05
0.0400179
-5.16657e-06
0.0400478
1.85265e-05
0.0400116
1.79275e-05
0.0400051
2.50963e-05
0.0399944
2.20647e-05
0.0399954
1.88758e-05
0.0399962
1.55628e-05
0.0399969
1.21542e-05
0.0399975
1.06756e-05
0.0399959
7.14592e-06
0.0399982
1.58368e-06
0.0399984
0.0399965
-6.60274e-06
0.0400261
-1.12329e-05
0.0400262
-1.99204e-05
0.0400284
-2.46824e-05
0.0400267
-3.35447e-05
0.040029
-4.05152e-05
0.0400293
-4.55989e-05
0.0400276
-5.27946e-05
0.0400299
-6.00831e-05
0.04003
-5.74233e-05
0.0400299
-6.27894e-05
0.0400396
-7.21086e-05
0.0400409
-7.72894e-05
0.0400417
-7.42234e-05
0.0400839
-8.48203e-05
0.0400577
-7.09346e-05
0.0399888
-9.8314e-05
0.040011
-0.000106818
0.0400204
-0.000114278
0.040029
-0.000118479
0.0400668
-0.000121267
0.040026
-0.000122458
0.0400005
-0.000119939
0.0399906
-0.000115616
0.0399824
-0.000109501
0.0399743
-0.000101636
0.0399661
-9.19818e-05
0.039959
-8.13505e-05
0.0399543
-7.10086e-05
0.039963
-6.39699e-05
0.0400003
-5.21743e-05
0.0399561
-3.92288e-05
0.0399416
-2.6585e-05
0.0399406
-1.41531e-05
0.0399418
-1.99038e-06
0.0399442
8.30369e-06
0.0399488
1.73885e-05
0.0399532
2.31846e-05
0.0399581
3.1661e-05
0.0399614
3.6837e-05
0.0399687
4.07632e-05
0.0399739
4.15148e-05
0.039979
4.5185e-05
0.0399818
4.58859e-05
0.0399882
4.57226e-05
0.0399923
4.28085e-05
0.039996
3.92463e-05
0.0400032
2.71412e-05
0.04003
2.4578e-05
0.0400504
2.75876e-05
0.0400086
3.42987e-05
0.0399984
3.07573e-05
0.0399979
2.70136e-05
0.0399991
2.31113e-05
0.0400001
1.90862e-05
0.0400009
1.69691e-05
0.0399996
1.07824e-05
0.0400021
8.55005e-06
0.0400004
4.28681e-06
0.0400026
0.0400008
-7.09934e-06
0.0400332
-1.42363e-05
0.0400333
-1.94412e-05
0.0400336
-2.87512e-05
0.040036
-3.41834e-05
0.0400344
-4.17688e-05
0.0400369
-4.95107e-05
0.0400354
-5.74123e-05
0.0400378
-6.54607e-05
0.0400381
-7.36277e-05
0.0400381
-7.18573e-05
0.0400378
-7.81019e-05
0.0400471
-8.42976e-05
0.0400479
-5.62805e-05
0.0400559
-8.77902e-05
0.0400892
-0.000102882
0.0400039
-0.000115214
0.0400234
-0.000122619
0.0400278
-0.000124838
0.0400313
-0.000123625
0.0400656
-0.000136748
0.0400391
-0.000137995
0.0400018
-0.000135187
0.0399878
-0.000130229
0.0399775
-0.000123068
0.0399671
-0.000113792
0.0399568
-0.000102553
0.0399478
-8.98197e-05
0.0399415
-7.69542e-05
0.0399502
-6.74432e-05
0.0399908
-5.33316e-05
0.039942
-3.79233e-05
0.0399262
-2.25645e-05
0.0399252
-8.43106e-06
0.0399277
3.7639e-06
0.039932
1.55896e-05
0.0399369
2.78886e-05
0.0399409
3.65886e-05
0.0399494
4.16761e-05
0.0399563
4.91888e-05
0.0399612
5.32126e-05
0.0399699
5.58551e-05
0.0399764
5.725e-05
0.0399804
5.75285e-05
0.039988
5.68328e-05
0.039993
5.13002e-05
0.0400015
2.90669e-05
0.0400254
1.42517e-05
0.0400448
3.69042e-05
0.0400278
4.31548e-05
0.0400023
4.10893e-05
0.0400005
3.67701e-05
0.0400022
3.22521e-05
0.0400037
2.95827e-05
0.0400028
2.47952e-05
0.0400057
1.79244e-05
0.0400065
1.49935e-05
0.040005
8.01927e-06
0.0400074
5.02173e-06
0.0400056
0.0400058
-7.55258e-06
0.0400407
-1.51531e-05
0.0400409
-2.2842e-05
0.0400413
-2.86578e-05
0.0400418
-3.86429e-05
0.0400444
-4.48164e-05
0.0400431
-5.52077e-05
0.0400458
-6.18125e-05
0.0400444
-7.0641e-05
0.0400469
-7.96582e-05
0.0400471
-8.88231e-05
0.040047
-8.80542e-05
0.0400463
-9.528e-05
0.0400551
-9.63808e-05
0.040057
-9.70989e-05
0.04009
-0.000121355
0.0400281
-0.000130867
0.0400329
-0.000135386
0.0400324
-0.00013462
0.0400305
-0.000110255
0.0400412
-0.000139822
0.0400687
-0.000153246
0.0400152
-0.00015225
0.0399868
-0.000146648
0.0399719
-0.000138373
0.0399589
-0.000127288
0.0399457
-0.000114183
0.0399347
-9.88107e-05
0.0399262
-8.33964e-05
0.0399347
-7.09483e-05
0.0399783
-5.38688e-05
0.039925
-3.538e-05
0.0399077
-1.77292e-05
0.0399076
-7.89948e-07
0.0399108
1.52626e-05
0.039916
2.87653e-05
0.0399234
3.83567e-05
0.0399313
4.99682e-05
0.0399378
5.76151e-05
0.0399486
6.13776e-05
0.0399574
6.73769e-05
0.0399639
6.97709e-05
0.039974
6.87314e-05
0.0399814
7.04339e-05
0.0399863
6.70595e-05
0.0399964
5.27679e-05
0.0400158
2.5753e-05
0.0400524
4.00502e-05
0.0400305
5.58348e-05
0.040012
5.32255e-05
0.040005
4.82983e-05
0.0400054
4.31231e-05
0.0400074
3.77674e-05
0.040009
3.22721e-05
0.0400083
2.66767e-05
0.0400113
2.30124e-05
0.0400101
1.72982e-05
0.0400107
1.15517e-05
0.0400131
5.78665e-06
0.0400114
0.0400116
-7.95218e-06
0.0400487
-1.59641e-05
0.0400489
-2.40863e-05
0.0400494
-3.237e-05
0.0400501
-3.88591e-05
0.0400509
-4.75982e-05
0.0400518
-5.66159e-05
0.0400548
-6.59296e-05
0.0400537
-7.55434e-05
0.0400565
-8.54419e-05
0.040057
-9.35799e-05
0.0400551
-0.000103909
0.0400567
-0.00010631
0.0400575
-0.000112717
0.0400634
-8.89123e-05
0.0400661
-0.000124457
0.0400637
-0.000143319
0.0400517
-0.000153169
0.0400422
-0.000157646
0.040035
-0.000152309
0.0400359
-0.00016869
0.0400851
-0.000174555
0.0400211
-0.000171516
0.0399838
-0.000165311
0.0399657
-0.000155846
0.0399494
-0.00014314
0.039933
-0.000127451
0.039919
-0.000109366
0.0399081
-9.04733e-05
0.0399158
-7.45228e-05
0.0399624
-5.39013e-05
0.0399043
-3.21913e-05
0.039886
-1.09906e-05
0.0398863
8.51792e-06
0.0398913
2.48953e-05
0.0398996
4.22282e-05
0.0399061
5.5168e-05
0.0399184
6.36729e-05
0.0399293
7.37938e-05
0.0399385
7.96695e-05
0.0399515
8.14819e-05
0.0399621
8.54406e-05
0.03997
8.57814e-05
0.0399811
8.47192e-05
0.0399873
7.64853e-05
0.0400046
6.12844e-05
0.040031
5.72618e-05
0.0400565
7.05766e-05
0.0400172
6.73816e-05
0.0400152
6.17973e-05
0.0400105
5.59136e-05
0.0400113
4.98087e-05
0.0400135
4.55465e-05
0.0400133
3.7169e-05
0.0400167
3.27182e-05
0.0400158
2.42151e-05
0.0400186
1.76835e-05
0.0400172
1.31359e-05
0.0400177
6.5775e-06
0.0400179
0.0400182
-8.28545e-06
0.040057
-1.46403e-05
0.0400553
-2.31346e-05
0.0400579
-3.18266e-05
0.0400588
-4.07761e-05
0.0400598
-5.00361e-05
0.0400611
-5.96512e-05
0.0400644
-6.96524e-05
0.0400637
-8.00572e-05
0.0400669
-8.88576e-05
0.0400658
-0.000102036
0.0400683
-0.000113524
0.0400682
-0.000123223
0.0400672
-0.000124995
0.0400652
-0.000132696
0.0400738
-0.00014793
0.0400789
-0.000160539
0.0400644
-0.000170092
0.0400518
-0.000178148
0.040043
-0.000184233
0.040042
-0.000193776
0.0400946
-0.000196369
0.0400237
-0.000193495
0.0399809
-0.000186789
0.039959
-0.000176043
0.0399386
-0.000161297
0.0399182
-0.000142581
0.0399003
-0.000121039
0.0398865
-9.83771e-05
0.0398932
-7.81795e-05
0.0399422
-5.32732e-05
0.0398794
-2.72695e-05
0.03986
-2.55113e-06
0.0398616
2.01638e-05
0.0398685
4.11475e-05
0.0398786
5.64798e-05
0.0398908
7.28021e-05
0.0399021
8.41337e-05
0.039918
9.05973e-05
0.039932
9.83947e-05
0.0399437
0.0001018
0.0399587
0.000103086
0.0399687
0.000102555
0.0399816
9.44964e-05
0.0399954
6.71951e-05
0.0400319
4.88851e-05
0.0400493
7.96748e-05
0.0400257
8.18363e-05
0.040015
7.55268e-05
0.0400215
7.08504e-05
0.0400152
6.39178e-05
0.0400182
5.67993e-05
0.0400206
4.95619e-05
0.0400205
4.22493e-05
0.040024
3.48954e-05
0.0400231
2.95242e-05
0.040024
2.21446e-05
0.0400246
1.47649e-05
0.040025
7.39029e-06
0.0400253
0.0400256
-8.53707e-06
0.0400655
-1.71625e-05
0.0400639
-2.595e-05
0.0400667
-3.49774e-05
0.0400678
-4.43187e-05
0.0400692
-5.40424e-05
0.0400708
-6.22048e-05
0.0400726
-7.28621e-05
0.0400744
-8.20364e-05
0.0400761
-9.57651e-05
0.0400795
-0.000106009
0.0400785
-0.000118733
0.0400809
-0.00013186
0.0400803
-0.000145235
0.0400786
-0.000150651
0.0400793
-0.000163851
0.0400921
-0.000176508
0.040077
-0.00018818
0.0400634
-0.000198312
0.0400532
-0.000206291
0.04005
-0.000215456
0.0401038
-0.000221183
0.0400294
-0.000218795
0.0399785
-0.000211745
0.0399519
-0.000199704
0.0399266
-0.000182611
0.0399011
-0.000160782
0.0398784
-0.000134828
0.0398606
-0.000107327
0.0398657
-8.19056e-05
0.0399168
-5.17704e-05
0.0398493
-2.10187e-05
0.0398292
8.1189e-06
0.0398325
3.45562e-05
0.0398421
5.86714e-05
0.0398545
7.81335e-05
0.0398713
9.18422e-05
0.0398883
0.000105873
0.039904
0.000114461
0.0399234
0.000119923
0.0399383
0.000122605
0.039956
0.000122918
0.0399684
0.000119219
0.0399853
9.78929e-05
0.0400167
6.53038e-05
0.0400645
8.95647e-05
0.040025
9.8983e-05
0.0400162
9.18431e-05
0.0400222
8.82644e-05
0.0400251
7.83689e-05
0.0400251
7.22765e-05
0.0400243
6.40666e-05
0.0400288
5.57888e-05
0.0400288
4.94895e-05
0.0400303
3.91885e-05
0.0400334
3.09091e-05
0.0400323
2.26552e-05
0.0400329
1.6429e-05
0.0400313
8.2193e-06
0.0400335
0.0400338
-6.68743e-06
0.0400722
-1.74882e-05
0.0400747
-2.64765e-05
0.0400757
-3.37456e-05
0.040075
-4.3394e-05
0.0400788
-5.35014e-05
0.0400809
-6.41546e-05
0.0400832
-7.54162e-05
0.0400856
-8.73444e-05
0.040088
-9.79716e-05
0.0400902
-0.000113322
0.0400939
-0.00012736
0.0400949
-0.000140016
0.040093
-0.000155166
0.0400937
-0.000168629
0.0400927
-0.000178076
0.0401015
-0.000195188
0.0400941
-0.000207441
0.0400757
-0.000220208
0.0400659
-0.000228743
0.0400585
-0.000224187
0.0400992
-0.000245612
0.0400508
-0.000248176
0.0399811
-0.000241072
0.0399448
-0.000227748
0.0399133
-0.000208033
0.0398814
-0.00018222
0.0398526
-0.000151339
0.0398297
-0.000117613
0.039832
-8.57141e-05
0.0398849
-4.91047e-05
0.0398127
-1.2304e-05
0.0397924
2.23247e-05
0.0397979
5.30827e-05
0.0398113
7.82752e-05
0.0398293
0.000101969
0.0398476
0.000118971
0.0398713
0.000131487
0.0398914
0.000139894
0.039915
0.000144635
0.0399335
0.000146217
0.0399544
0.000143153
0.0399715
0.000135933
0.0399925
0.000115011
0.0400376
0.000118729
0.0400608
0.000119313
0.0400244
0.000113197
0.0400224
0.000102587
0.0400328
9.75427e-05
0.0400301
9.0305e-05
0.0400323
8.09527e-05
0.0400336
7.15615e-05
0.0400382
6.21797e-05
0.0400382
5.28378e-05
0.0400396
4.55654e-05
0.0400407
3.6354e-05
0.0400415
2.72059e-05
0.040042
1.61091e-05
0.0400424
9.05713e-06
0.0400406
0.0400428
-8.73128e-06
0.0400809
-1.75869e-05
0.0400836
-2.46601e-05
0.0400827
-3.60744e-05
0.0400865
-4.39207e-05
0.0400867
-5.43189e-05
0.0400913
-6.5366e-05
0.0400943
-7.71567e-05
0.0400974
-8.97744e-05
0.0401006
-0.000103281
0.0401037
-0.000115729
0.0401063
-0.000131125
0.0401103
-0.00014742
0.0401093
-0.00016454
0.0401108
-0.000182276
0.0401105
-0.000200366
0.0401196
-0.000210381
0.0401041
-0.000229817
0.0400951
-0.000241942
0.0400781
-0.000247915
0.0400645
-0.000216619
0.0400679
-0.000260407
0.0400946
-0.000280601
0.0400013
-0.000275912
0.0399401
-0.000261437
0.0398988
-0.000238791
0.0398588
-0.000208224
0.0398221
-0.000170753
0.0397922
-0.000129663
0.0397909
-8.95679e-05
0.0398448
-4.48416e-05
0.039768
-3.82494e-07
0.039748
4.04101e-05
0.0397571
7.61773e-05
0.0397756
0.000106956
0.0397985
0.000128926
0.0398256
0.000149016
0.0398512
0.000159673
0.0398808
0.000169424
0.0399053
0.000170938
0.039932
0.000172907
0.0399524
0.000163976
0.0399804
0.000126818
0.0400297
0.000109918
0.0400545
0.000137491
0.0400332
0.000140166
0.0400218
0.000130222
0.0400323
0.000119893
0.0400431
0.000109265
0.0400407
0.00010056
0.040041
8.78556e-05
0.0400464
7.92134e-05
0.0400468
6.86717e-05
0.0400487
5.82543e-05
0.04005
4.7968e-05
0.040051
3.78068e-05
0.0400516
2.97595e-05
0.0400501
1.97964e-05
0.0400523
9.89505e-06
0.0400505
0.0400527
-8.64126e-06
0.0400896
-1.74251e-05
0.0400923
-2.64622e-05
0.0400918
-3.38757e-05
0.0400939
-4.58084e-05
0.0400986
-5.4368e-05
0.0400999
-6.56968e-05
0.0401056
-7.79132e-05
0.0401096
-9.11337e-05
0.0401138
-0.000105463
0.040118
-0.000120984
0.0401218
-0.000135746
0.0401251
-0.000155776
0.0401293
-0.000172995
0.040128
-0.000193283
0.0401307
-0.000214363
0.0401407
-0.000235846
0.0401256
-0.00024913
0.0401084
-0.000269447
0.0400984
-0.000285711
0.0400807
-0.000286597
0.0400688
-0.000310236
0.0401182
-0.000323247
0.0400143
-0.000317823
0.0399347
-0.000302523
0.0398835
-0.0002766
0.0398329
-0.000240281
0.0397857
-0.000195023
0.039747
-0.000144056
0.0397399
-9.34425e-05
0.0397941
-3.83853e-05
0.0397129
1.5382e-05
0.0396942
6.36601e-05
0.0397088
0.000105396
0.0397338
0.000140027
0.0397639
0.000166127
0.0397995
0.00018495
0.0398324
0.000197162
0.0398686
0.000203631
0.0398988
0.000205264
0.0399304
0.000198954
0.0399588
0.000175565
0.0400038
0.000135979
0.0400693
0.000158402
0.0400321
0.000167551
0.040024
0.000157997
0.0400313
0.000143991
0.0400463
0.000133701
0.0400534
0.000123343
0.0400511
0.000109043
0.0400553
9.889e-05
0.0400565
8.69261e-05
0.0400588
7.51797e-05
0.0400604
6.36564e-05
0.0400616
5.43517e-05
0.0400603
4.32351e-05
0.0400627
3.02782e-05
0.040063
2.1457e-05
0.0400612
8.71566e-06
0.0400632
0.0400614
-8.40516e-06
0.040098
-1.49649e-05
0.0400989
-2.58196e-05
0.0401026
-3.50981e-05
0.0401031
-4.29486e-05
0.0401064
-5.55384e-05
0.0401124
-6.4996e-05
0.040115
-7.75049e-05
0.0401221
-8.91975e-05
0.0401255
-0.000104239
0.040133
-0.000120754
0.0401384
-0.000138872
0.0401432
-0.000158653
0.0401491
-0.000180113
0.0401495
-0.000203181
0.0401538
-0.00022565
0.0401632
-0.000251162
0.0401511
-0.000279146
0.0401364
-0.000298652
0.0401179
-0.000320554
0.0401026
-0.000337139
0.0400854
-0.000338344
0.0401194
-0.000365731
0.0400416
-0.000368814
0.0399378
-0.000353314
0.039868
-0.000323911
0.0398034
-0.000280596
0.0397424
-0.000224914
0.0396913
-0.000161564
0.0396765
-9.72375e-05
0.0397298
-2.88252e-05
0.0396445
3.64883e-05
0.0396289
9.44681e-05
0.0396508
0.000142755
0.0396856
0.000179131
0.0397275
0.000208967
0.0397697
0.000225854
0.0398155
0.000238853
0.0398556
0.000239151
0.0398985
0.000232009
0.0399375
0.000220573
0.0399702
0.000202004
0.0400223
0.000201057
0.0400702
0.000200392
0.0400328
0.000190784
0.0400336
0.000172655
0.0400494
0.000156334
0.0400626
0.000147859
0.0400619
0.000133581
0.0400654
0.000121586
0.0400673
0.000107906
0.0400702
9.45746e-05
0.0400721
8.15917e-05
0.0400734
7.09603e-05
0.0400722
5.66248e-05
0.0400746
4.65686e-05
0.0400728
3.47314e-05
0.0400748
2.30666e-05
0.0400728
1.15179e-05
0.0400748
0.040073
-8.0076e-06
0.040106
-1.61913e-05
0.0401071
-2.26826e-05
0.0401091
-3.16534e-05
0.0401121
-4.32718e-05
0.0401181
-5.1695e-05
0.0401209
-6.31233e-05
0.0401265
-7.57422e-05
0.0401348
-8.97493e-05
0.0401395
-0.000105348
0.0401486
-0.000122738
0.0401557
-0.000142106
0.0401625
-0.000161605
0.0401686
-0.000185351
0.0401732
-0.000209386
0.0401778
-0.000235643
0.0401894
-0.000267739
0.0401832
-0.000299221
0.0401679
-0.000331239
0.0401499
-0.000354359
0.0401258
-0.000372908
0.040104
-0.000344169
0.0400907
-0.000403932
0.0401014
-0.000429464
0.0399633
-0.000416942
0.0398555
-0.000383973
0.0397705
-0.000331934
0.0396904
-0.000263479
0.0396228
-0.000183246
0.0395963
-0.000100624
0.0396472
-1.46798e-05
0.0395585
6.57946e-05
0.0395484
0.000134811
0.0395818
0.000190139
0.0396302
0.000232355
0.0396853
0.000261122
0.0397409
0.000279041
0.0397976
0.000283668
0.0398509
0.000270633
0.0399115
0.000241542
0.0399666
0.000212013
0.0399997
0.000201276
0.0400331
0.000234123
0.0400374
0.0002278
0.0400391
0.000210915
0.0400505
0.000191856
0.0400685
0.000176837
0.0400776
0.000162077
0.0400766
0.00014778
0.0400796
0.00013199
0.0400831
0.000116732
0.0400854
0.000102008
0.0400869
8.97971e-05
0.0400856
7.40445e-05
0.0400879
6.27178e-05
0.0400859
4.77364e-05
0.0400878
3.70554e-05
0.0400855
2.25845e-05
0.0400873
1.22723e-05
0.0400851
0.0400852
-7.43558e-06
0.0401134
-1.50612e-05
0.0401147
-2.30229e-05
0.0401171
-3.14999e-05
0.0401206
-3.86687e-05
0.0401252
-4.87395e-05
0.0401309
-5.99177e-05
0.0401376
-7.24289e-05
0.0401473
-8.65282e-05
0.0401536
-0.000102468
0.0401646
-0.000118514
0.0401718
-0.000138954
0.040183
-0.000162072
0.0401917
-0.000188096
0.0401993
-0.000215224
0.040205
-0.000239555
0.0402138
-0.000278727
0.0402224
-0.000320612
0.0402098
-0.000360364
0.0401896
-0.000400659
0.040166
-0.00042935
0.0401326
-0.000451366
0.0401127
-0.000489763
0.0401398
-0.000507586
0.0399811
-0.000498181
0.0398461
-0.000462132
0.0397344
-0.00039974
0.039628
-0.00031361
0.0395367
-0.000211029
0.0394937
-0.000103076
0.0395392
6.23711e-06
0.0394492
0.000105667
0.039449
0.000188403
0.0394991
0.000251495
0.0395671
0.000296104
0.0396407
0.000322148
0.0397149
0.000335867
0.0397839
0.000324711
0.0398621
0.000306658
0.0399296
0.000298019
0.0399752
0.000269005
0.0400287
0.000272772
0.0400293
0.000272805
0.0400373
0.000256254
0.0400556
0.000231614
0.0400752
0.000207285
0.0400928
0.000193308
0.0400916
0.000176074
0.0400939
0.000157645
0.0400981
0.00014001
0.0401008
0.000125163
0.0401003
0.000109045
0.040103
9.36201e-05
0.0401011
7.88003e-05
0.0401028
6.45127e-05
0.0401002
5.2679e-05
0.0400996
3.71932e-05
0.040101
2.59919e-05
0.0400985
1.29642e-05
0.0400981
0.0400982
-6.67827e-06
0.0401201
-1.35568e-05
0.0401216
-2.07909e-05
0.0401243
-2.65604e-05
0.0401264
-3.50794e-05
0.0401337
-4.45593e-05
0.0401404
-5.7248e-05
0.0401503
-6.73869e-05
0.0401574
-8.1292e-05
0.0401675
-9.5271e-05
0.0401785
-0.000115706
0.0401922
-0.00013494
0.0402022
-0.000159398
0.0402161
-0.000187493
0.0402274
-0.000219585
0.0402371
-0.00025199
0.0402462
-0.000294785
0.0402652
-0.000339897
0.0402549
-0.000388871
0.0402386
-0.000440447
0.0402176
-0.000492501
0.0401847
-0.000531598
0.0401518
-0.000565992
0.0401742
-0.000605081
0.0400202
-0.000601744
0.0398427
-0.000562817
0.0396955
-0.000488106
0.0395533
-0.000379113
0.0394277
-0.000243901
0.0393585
-0.000100468
0.0393958
3.86339e-05
0.0393101
0.000163144
0.0393245
0.000261588
0.0394006
0.000331492
0.0394972
0.000374541
0.0395977
0.000398111
0.0396913
0.000392023
0.03979
0.000373081
0.039881
0.000365785
0.0399369
0.000359445
0.0399816
0.000345018
0.0400431
0.000330227
0.0400441
0.000306665
0.0400609
0.000281193
0.0400811
0.000254308
0.0401021
0.000232279
0.0401148
0.000211287
0.0401126
0.000191501
0.0401137
0.000170886
0.0401187
0.000151397
0.0401202
0.000132969
0.0401187
0.000115509
0.0401204
9.89208e-05
0.0401176
8.51004e-05
0.0401166
6.79211e-05
0.0401174
5.32919e-05
0.0401142
4.1102e-05
0.0401132
2.72317e-05
0.0401124
1.3576e-05
0.0401118