/*--------------------------------*- C++ -*----------------------------------*\
  =========                 |
  \\      /  F ield         | OpenFOAM: The Open Source CFD Toolbox
   \\    /   O peration     | Website:  https://openfoam.org
    \\  /    A nd           | Version:  12
     \\/     M anipulation  |
\*---------------------------------------------------------------------------*/
FoamFile
{
    format      ascii;
    class       volVectorField;
    location    "40";
    object      U;
}
// * * * * * * * * * * * * * * * * * * * * * * * * * * * * * * * * * * * * * //

dimensions      [0 1 -1 0 0 0 0];

internalField   nonuniform List<vector> 
16227
(
(2.00001 -1.199e-05 5.26501e-23)
(2.00001 -3.60305e-05 -5.24461e-23)
(2.00001 -6.00793e-05 5.24466e-23)
(2.00001 -8.41786e-05 5.16557e-23)
(2.00001 -0.000108322 -5.16563e-23)
(2.00001 -0.000132497 -5.03237e-23)
(2.00001 -0.000156698 8.57557e-25)
(2.00001 -0.000180878 9.79174e-23)
(2.00001 -0.000204968 -1.43145e-22)
(2.00001 -0.000228884 9.46813e-23)
(2.00001 -0.00025252 0)
(2.00001 -0.000275761 -8.8076e-23)
(2.00001 -0.0002984 0)
(2.00001 -0.000320259 0)
(2.00001 -0.000341109 0)
(2.00001 -0.000360719 0)
(2.00001 -0.000378836 0)
(2.00001 -0.000395204 0)
(2 -0.000409563 0)
(2 -0.000421665 0)
(2 -0.000431269 4.98785e-23)
(2 -0.000438166 -4.7204e-24)
(2 -0.000442196 -4.51579e-23)
(2 -0.000443261 0)
(2 -0.000441322 3.09801e-23)
(2 -0.000436409 -3.09801e-23)
(2 -0.000428622 0)
(2 -0.000418123 -9.79094e-24)
(2 -0.000405157 0)
(2 -0.000390004 0)
(2 -0.000372957 0)
(2 -0.000354427 0)
(2 -0.000334779 0)
(2 -0.000314396 4.42052e-24)
(2 -0.000293634 2.82302e-24)
(2 -0.000272827 -7.24368e-24)
(2 -0.000252263 0)
(2 -0.000232197 1.42731e-23)
(2 -0.00021283 1.8926e-24)
(1.99999 -0.00019432 -1.61659e-23)
(1.99999 -0.000176777 0)
(1.99999 -0.000160273 0)
(1.99999 -0.000144845 0)
(1.99999 -0.000130495 0)
(1.99999 -0.000117209 0)
(1.99999 -0.000104952 0)
(1.99999 -9.3665e-05 0)
(1.99999 -8.32807e-05 0)
(2 -7.37284e-05 0)
(2 -6.49301e-05 0)
(2 -5.68083e-05 0)
(2 -4.92855e-05 0)
(2 -4.22777e-05 0)
(2 -3.57319e-05 0)
(2 -2.96016e-05 -1.3937e-23)
(2 -2.37941e-05 1.39377e-23)
(2 -1.82392e-05 0)
(2 -1.28776e-05 0)
(2 -7.65563e-06 0)
(2 -2.51949e-06 1.40931e-23)
(2.00005 -2.80082e-05 2.6156e-25)
(2.00005 -8.42144e-05 0)
(2.00005 -0.000140421 0)
(2.00005 -0.000196804 0)
(2.00005 -0.000253335 8.72426e-23)
(2.00005 -0.000310017 0)
(2.00005 -0.000366789 0)
(2.00005 -0.000423531 2.47416e-22)
(2.00005 -0.000480037 -1.64232e-22)
(2.00005 -0.000536046 3.12399e-22)
(2.00005 -0.000591178 -1.22705e-21)
(2.00005 -0.00064502 7.48933e-22)
(2.00005 -0.000697084 -3.64874e-22)
(2.00005 -0.000746737 0)
(2.00004 -0.000793306 0)
(2.00004 -0.00083605 0)
(2.00004 -0.00087417 0)
(2.00003 -0.000906857 0)
(2.00003 -0.000933327 0)
(2.00002 -0.00095283 0)
(2.00002 -0.000964631 0)
(2.00001 -0.000968169 0)
(2 -0.000963057 0)
(2 -0.000949085 0)
(1.99999 -0.000926277 0)
(1.99998 -0.000894891 4.44383e-23)
(1.99998 -0.000855432 -4.44393e-23)
(1.99997 -0.000808641 1.65552e-23)
(1.99997 -0.000755467 0)
(1.99996 -0.000696996 0)
(1.99996 -0.000634525 0)
(1.99996 -0.000569466 0)
(1.99995 -0.000503174 0)
(1.99995 -0.000436968 0)
(1.99995 -0.000372079 0)
(1.99995 -0.000309617 -1.69075e-23)
(1.99996 -0.000250532 -3.94598e-24)
(1.99996 -0.000195564 -3.55516e-24)
(1.99996 -0.000145287 -3.18424e-24)
(1.99996 -0.000100083 2.75949e-23)
(1.99996 -6.0155e-05 3.29443e-23)
(1.99997 -2.5556e-05 -3.29447e-23)
(1.99997 3.79177e-06 0)
(1.99997 2.80789e-05 0)
(1.99997 4.75596e-05 0)
(1.99998 6.25806e-05 0)
(1.99998 7.35147e-05 0)
(1.99998 8.0757e-05 0)
(1.99998 8.46909e-05 0)
(1.99999 8.57078e-05 0)
(1.99999 8.42001e-05 4.56881e-23)
(1.99999 8.05253e-05 -9.16955e-23)
(1.99999 7.50111e-05 -9.31406e-23)
(1.99999 6.78918e-05 9.31447e-23)
(1.99999 5.94405e-05 -9.43528e-23)
(1.99999 4.99431e-05 1.4174e-22)
(1.99999 3.96412e-05 -4.7408e-23)
(1.99999 2.87522e-05 2.38439e-23)
(1.99999 1.74417e-05 -2.38441e-23)
(1.99999 5.92399e-06 2.39979e-26)
(2.00011 -3.91035e-05 -8.91608e-23)
(2.00011 -0.000117414 0)
(2.00011 -0.000195784 0)
(2.00012 -0.00027446 0)
(2.00012 -0.000353418 -8.72398e-23)
(2.00012 -0.000432661 1.71261e-22)
(2.00012 -0.000512108 -2.90128e-24)
(2.00012 -0.000591548 -2.51483e-22)
(2.00011 -0.000670662 -8.18796e-23)
(2.00011 -0.000748985 -3.1383e-22)
(2.00011 -0.000825919 3.18047e-22)
(2.00011 -0.000900621 6.03071e-22)
(2.0001 -0.000972456 -7.29039e-23)
(2.0001 -0.00104042 0)
(2.00009 -0.00110322 -6.64764e-23)
(2.00008 -0.00115966 0)
(2.00007 -0.0012084 0)
(2.00006 -0.00124806 0)
(2.00005 -0.00127735 2.00826e-22)
(2.00003 -0.00129496 -2.00807e-22)
(2.00002 -0.0012997 8.45542e-23)
(2 -0.00129068 -8.45554e-23)
(1.99998 -0.0012673 0)
(1.99997 -0.00122928 6.01303e-23)
(1.99995 -0.00117678 -8.0741e-24)
(1.99993 -0.00111035 -5.20608e-23)
(1.99992 -0.00103101 0)
(1.9999 -0.00094017 0)
(1.99989 -0.000839653 0)
(1.99988 -0.000731563 0)
(1.99987 -0.000618313 -2.9029e-24)
(1.99987 -0.000502428 8.4146e-24)
(1.99987 -0.000386328 0)
(1.99987 -0.00027241 0)
(1.99987 -0.000162879 1.323e-23)
(1.99988 -5.96323e-05 -1.32307e-23)
(1.99989 3.5708e-05 0)
(1.99989 0.000121892 0)
(1.9999 0.000198028 0)
(1.99991 0.000263558 0)
(1.99992 0.000318265 0)
(1.99993 0.000362213 0)
(1.99994 0.0003957 -1.84747e-23)
(1.99995 0.000419227 0)
(1.99996 0.000433413 0)
(1.99997 0.000438984 0)
(1.99998 0.000436755 -2.1596e-23)
(1.99999 0.000427535 4.29058e-23)
(1.99999 0.000412134 0)
(2 0.000391342 2.25501e-23)
(2 0.000365897 0)
(2.00001 0.000336548 4.60085e-23)
(2.00001 0.000303831 9.33678e-23)
(2.00001 0.000268278 2.4113e-23)
(2.00001 0.000230432 -9.40202e-23)
(2.00002 0.000190783 4.74747e-23)
(2.00002 0.000149749 -4.74936e-23)
(2.00002 0.000107686 0)
(2.00002 6.49069e-05 0)
(2.00002 2.17635e-05 -2.38209e-23)
(2.00021 -5.21147e-05 0)
(2.00021 -0.000156279 0)
(2.00021 -0.00026062 8.99802e-23)
(2.00021 -0.000365424 0)
(2.00021 -0.000470693 8.74534e-23)
(2.00021 -0.000576436 -8.74488e-23)
(2.00021 -0.000682536 0)
(2.00021 -0.000788734 2.47887e-22)
(2.00021 -0.000894546 -2.50399e-22)
(2.0002 -0.000999342 0)
(2.0002 -0.00110227 3.06689e-22)
(2.00019 -0.00120207 9.06118e-22)
(2.00019 -0.00129798 1.44897e-22)
(2.00017 -0.00138842 0)
(2.00016 -0.00147159 6.64599e-23)
(2.00014 -0.0015457 0)
(2.00012 -0.00160882 0)
(2.0001 -0.001659 -4.34819e-22)
(2.00007 -0.00169427 4.34925e-22)
(2.00004 -0.00171252 0)
(2.00001 -0.00171216 8.47953e-23)
(1.99998 -0.00169199 -8.26994e-24)
(1.99994 -0.00165105 -8.32356e-24)
(1.99991 -0.00158892 -6.82107e-23)
(1.99987 -0.00150584 0)
(1.99984 -0.00140271 0)
(1.99981 -0.00128104 0)
(1.99978 -0.00114303 -1.40472e-23)
(1.99976 -0.000991432 2.17246e-24)
(1.99974 -0.000829439 -6.93075e-24)
(1.99973 -0.000660734 1.42247e-24)
(1.99973 -0.000489114 0)
(1.99973 -0.00031828 0)
(1.99973 -0.000151779 0)
(1.99974 7.13707e-06 -1.43615e-23)
(1.99976 0.000155613 -4.30381e-24)
(1.99978 0.000291315 -3.87515e-24)
(1.9998 0.000412493 -3.46692e-24)
(1.99982 0.000517857 5.5093e-23)
(1.99984 0.000606707 -2.90849e-23)
(1.99987 0.000678814 0)
(1.99989 0.000734397 -1.79235e-23)
(1.99991 0.000774016 1.84728e-23)
(1.99994 0.000798491 0)
(1.99996 0.000808858 0)
(1.99997 0.000806286 0)
(1.99999 0.000792034 -2.13061e-23)
(2.00001 0.000767357 0)
(2.00002 0.000733499 0)
(2.00003 0.000691705 -4.52537e-23)
(2.00004 0.000643072 -9.20771e-23)
(2.00005 0.000588648 1.85019e-22)
(2.00006 0.000529305 -9.29779e-23)
(2.00006 0.000465841 -1.17781e-22)
(2.00007 0.000399104 9.43046e-23)
(2.00007 0.000329772 0)
(2.00007 0.000258443 0)
(2.00008 0.000185617 2.39317e-23)
(2.00008 0.00011178 0)
(2.00008 3.73711e-05 0)
(2.00032 -6.6713e-05 0)
(2.00033 -0.000199936 0)
(2.00033 -0.000333498 9.26421e-25)
(2.00033 -0.000467717 0)
(2.00033 -0.000602657 0)
(2.00033 -0.000738332 1.75272e-22)
(2.00033 -0.000874612 2.55276e-22)
(2.00033 -0.00101117 -2.57878e-22)
(2.00033 -0.00114743 0)
(2.00032 -0.00128259 0)
(2.00032 -0.00141554 3.09833e-22)
(2.00031 -0.00154457 -1.82138e-21)
(2.00029 -0.00166873 1.47456e-22)
(2.00027 -0.00178589 -1.44012e-22)
(2.00025 -0.00189368 0)
(2.00022 -0.00198967 0)
(2.00019 -0.00207125 -2.34465e-22)
(2.00015 -0.00213585 -6.61017e-22)
(2.0001 -0.00218054 3.32288e-22)
(2.00005 -0.00220242 0)
(2 -0.00219959 0)
(1.99994 -0.00217021 0)
(1.99988 -0.00211285 0)
(1.99982 -0.00202693 5.95798e-23)
(1.99976 -0.00191271 -8.45935e-24)
(1.99971 -0.00177137 -8.30571e-24)
(1.99966 -0.001605 -4.28298e-23)
(1.99961 -0.00141664 -1.50464e-23)
(1.99958 -0.00121011 2.1217e-24)
(1.99955 -0.000989865 9.74776e-24)
(1.99953 -0.000761006 -9.85609e-24)
(1.99953 -0.000528829 5.82465e-24)
(1.99953 -0.000298431 -6.02315e-24)
(1.99954 -7.47122e-05 6.02378e-24)
(1.99956 0.000137877 1.59499e-23)
(1.99959 0.000335543 -1.59494e-23)
(1.99963 0.000515115 0)
(1.99967 0.000674235 0)
(1.99971 0.000811307 -3.03814e-23)
(1.99975 0.000925513 3.03789e-23)
(1.99979 0.00101671 3.52983e-23)
(1.99984 0.00108531 -1.73735e-23)
(1.99988 0.00113219 0)
(1.99992 0.00115855 0)
(1.99995 0.00116594 0)
(1.99999 0.001156 0)
(2.00002 0.00113046 0)
(2.00004 0.00109111 0)
(2.00007 0.00103965 -2.26261e-23)
(2.00009 0.000977727 -1.14838e-22)
(2.0001 0.000906943 9.16866e-23)
(2.00012 0.000828514 9.34584e-23)
(2.00013 0.000743702 -1.40558e-22)
(2.00014 0.00065361 9.46878e-23)
(2.00015 0.000559344 -9.46872e-23)
(2.00016 0.000461766 0)
(2.00016 0.00036165 0)
(2.00016 0.0002596 7.09369e-26)
(2.00017 0.00015628 0)
(2.00017 5.21769e-05 0)
(2.00047 -8.19646e-05 9.23875e-23)
(2.00047 -0.000245669 0)
(2.00048 -0.000409909 1.88243e-25)
(2.00048 -0.000575066 -9.10801e-23)
(2.00048 -0.000741288 0)
(2.00048 -0.00090863 1.15826e-24)
(2.00048 -0.00107697 1.73244e-22)
(2.00048 -0.00124592 -1.73204e-22)
(2.00048 -0.00141488 0)
(2.00047 -0.00158286 0)
(2.00046 -0.00174857 -1.60701e-22)
(2.00045 -0.00190982 -6.22578e-22)
(2.00043 -0.00206513 2.95765e-22)
(2.0004 -0.00221222 -1.44099e-22)
(2.00037 -0.00234801 0)
(2.00032 -0.0024693 1.26066e-22)
(2.00027 -0.00257277 -1.26107e-22)
(2.00021 -0.00265506 1.32993e-23)
(2.00014 -0.00271221 4.9584e-22)
(2.00007 -0.00274049 9.41899e-23)
(1.99998 -0.00273734 -9.89918e-23)
(1.99989 -0.00270024 -8.77167e-24)
(1.9998 -0.00262711 -7.68636e-23)
(1.99971 -0.00251711 0)
(1.99962 -0.00237042 0)
(1.99953 -0.00218853 0)
(1.99945 -0.0019742 0)
(1.99939 -0.00173139 1.50463e-23)
(1.99933 -0.00146512 0)
(1.99929 -0.0011813 0)
(1.99927 -0.000886703 -5.74257e-24)
(1.99926 -0.000588431 3.86174e-24)
(1.99927 -0.000293169 0)
(1.99929 -7.33051e-06 0)
(1.99933 0.000263265 0)
(1.99938 0.000513692 0)
(1.99944 0.000739918 2.58983e-23)
(1.9995 0.000939035 3.27515e-24)
(1.99957 0.00110919 -4.50386e-23)
(1.99964 0.00124948 0)
(1.99971 0.0013599 0)
(1.99977 0.00144117 3.85433e-23)
(1.99984 0.00149462 -5.86e-23)
(1.9999 0.00152201 0)
(1.99996 0.0015254 0)
(2.00001 0.001507 0)
(2.00005 0.00146917 0)
(2.0001 0.00141419 0)
(2.00013 0.00134432 6.84093e-23)
(2.00016 0.0012617 1.85145e-22)
(2.00019 0.00116825 -1.85087e-22)
(2.00021 0.00106547 9.41108e-23)
(2.00023 0.000955012 -4.70525e-23)
(2.00025 0.000838331 0)
(2.00026 0.00071674 2.39106e-23)
(2.00027 0.000591239 0)
(2.00028 0.000462762 0)
(2.00028 0.000332036 -2.40007e-23)
(2.00028 0.00019984 0)
(2.00029 6.66903e-05 2.40499e-23)
(2.00065 -9.71816e-05 1.34824e-24)
(2.00065 -0.000291444 0)
(2.00066 -0.000486477 0)
(2.00066 -0.000682776 9.27317e-23)
(2.00066 -0.000880597 0)
(2.00067 -0.00108009 -8.93667e-23)
(2.00067 -0.00128118 8.78857e-23)
(2.00067 -0.00148345 -1.75722e-22)
(2.00067 -0.00168625 0)
(2.00066 -0.00188848 3.28443e-22)
(2.00065 -0.00208872 -1.67754e-22)
(2.00063 -0.00228437 6.11307e-24)
(2.0006 -0.00247318 -6.05361e-22)
(2.00056 -0.00265303 2.85975e-22)
(2.00051 -0.00281987 -6.75198e-24)
(2.00045 -0.00296969 5.43193e-23)
(2.00038 -0.00309842 -1.22019e-21)
(2.00029 -0.0032016 5.14102e-22)
(2.00019 -0.00327419 7.10983e-22)
(2.00008 -0.0033115 -9.14538e-22)
(1.99996 -0.00331004 -9.60897e-23)
(1.99983 -0.00326648 7.71252e-23)
(1.9997 -0.00317791 -9.21632e-24)
(1.99957 -0.00304302 -6.7927e-23)
(1.99943 -0.00286186 0)
(1.99931 -0.0026362 0)
(1.9992 -0.00236947 0)
(1.9991 -0.00206668 0)
(1.99902 -0.00173434 -9.18042e-24)
(1.99897 -0.00138007 0)
(1.99894 -0.00101264 7.54397e-24)
(1.99893 -0.000641268 0)
(1.99895 -0.000274585 1.06974e-23)
(1.99898 7.92015e-05 -1.06989e-23)
(1.99904 0.000412743 2.05276e-23)
(1.99911 0.00071987 4.10029e-24)
(1.9992 0.000995548 -5.2839e-23)
(1.9993 0.00123638 2.82136e-23)
(1.9994 0.00144031 -1.81785e-23)
(1.9995 0.00160646 3.40473e-23)
(1.9996 0.00173515 1.92435e-23)
(1.9997 0.00182752 0)
(1.9998 0.00188551 2.00553e-23)
(1.99989 0.00191152 0)
(1.99997 0.00190833 0)
(2.00004 0.00187889 2.23716e-23)
(2.00011 0.00182614 -2.27244e-23)
(2.00017 0.00175305 0)
(2.00022 0.0016624 2.78555e-22)
(2.00026 0.0015569 1.88786e-22)
(2.0003 0.00143874 -3.744e-22)
(2.00033 0.00130993 -9.48657e-23)
(2.00036 0.00117236 2.1409e-22)
(2.00038 0.00102786 -9.53436e-23)
(2.00039 0.000877875 -2.39092e-23)
(2.00041 0.00072354 0)
(2.00042 0.000565924 4.82741e-23)
(2.00043 0.000405861 -2.41189e-23)
(2.00043 0.00024422 0)
(2.00043 8.15143e-05 9.26051e-26)
(2.00086 -0.000111935 -9.37309e-23)
(2.00087 -0.000335941 0)
(2.00087 -0.000561026 0)
(2.00087 -0.000787828 -9.40059e-23)
(2.00088 -0.00101676 -9.76699e-25)
(2.00088 -0.00124811 -9.20324e-23)
(2.00089 -0.00148193 9.10297e-23)
(2.00089 -0.00171779 2.63247e-22)
(2.00089 -0.00195504 -1.75367e-22)
(2.00088 -0.00219248 3.3441e-22)
(2.00086 -0.00242858 7.3671e-23)
(2.00084 -0.00266069 -4.86248e-22)
(2.0008 -0.00288561 1.22161e-21)
(2.00075 -0.00310056 5.78568e-22)
(2.00068 -0.00330144 -5.78675e-22)
(2.0006 -0.0034831 6.64918e-23)
(2.00051 -0.00364065 -1.51531e-21)
(2.00039 -0.00376828 2.61786e-22)
(2.00025 -0.00385992 2.17357e-22)
(2.0001 -0.00390937 5.90932e-22)
(1.99994 -0.00391208 -9.35025e-23)
(1.99976 -0.00386362 0)
(1.99958 -0.00375994 0)
(1.99939 -0.00359911 5.81421e-23)
(1.99921 -0.00338089 -9.59439e-24)
(1.99904 -0.00310724 -4.8571e-23)
(1.99888 -0.00278234 0)
(1.99875 -0.00241252 -2.13895e-23)
(1.99865 -0.00200599 3.057e-23)
(1.99857 -0.00157241 0)
(1.99853 -0.00112305 -1.40542e-26)
(1.99852 -0.000669697 -9.63883e-24)
(1.99855 -0.000223315 -5.80978e-24)
(1.99861 0.000205738 3.28891e-23)
(1.99869 0.00060823 4.56018e-24)
(1.99879 0.000976584 -2.35828e-23)
(1.99892 0.00130485 0)
(1.99905 0.00158906 3.39409e-23)
(1.9992 0.00182707 2.51013e-24)
(1.99934 0.00201818 -3.64403e-23)
(1.99948 0.00216323 -3.9604e-23)
(1.99962 0.00226406 0)
(1.99975 0.00232335 0)
(1.99988 0.00234442 -2.22228e-23)
(1.99999 0.00233084 0)
(2.00009 0.00228642 -4.53347e-23)
(2.00018 0.00221493 2.27198e-23)
(2.00026 0.00212003 -4.69227e-23)
(2.00033 0.00200519 -2.8208e-22)
(2.00039 0.00187356 -1.89378e-22)
(2.00044 0.00172757 9.35423e-23)
(2.00048 0.00156978 4.2589e-25)
(2.00051 0.00140262 -1.43613e-22)
(2.00054 0.00122809 4.81654e-23)
(2.00056 0.00104765 0)
(2.00058 0.000862653 0)
(2.00059 0.000674211 1.2112e-25)
(2.0006 0.000483262 0)
(2.00061 0.000290721 0)
(2.00061 9.70718e-05 -2.41409e-23)
(2.0011 -0.000126078 0)
(2.0011 -0.000378637 0)
(2.00111 -0.000632642 -9.67432e-23)
(2.00112 -0.000888982 9.42991e-23)
(2.00113 -0.00114825 0)
(2.00113 -0.00141091 1.8672e-22)
(2.00114 -0.00167718 -9.2433e-23)
(2.00114 -0.0019468 -9.11013e-23)
(2.00114 -0.00221902 0)
(2.00113 -0.00249265 0)
(2.00112 -0.00276609 2.48329e-22)
(2.00109 -0.00303664 -1.70108e-22)
(2.00104 -0.00330046 -6.17741e-22)
(2.00098 -0.00355358 -1.8322e-21)
(2.00089 -0.00379249 0)
(2.00079 -0.00401037 2.78043e-22)
(2.00066 -0.00420139 1.02455e-21)
(2.00051 -0.00435812 2.44842e-22)
(2.00034 -0.00447325 4.36624e-22)
(2.00014 -0.00453897 -1.1675e-22)
(1.99992 -0.00454935 1.74839e-22)
(1.99968 -0.00449837 -1.00851e-23)
(1.99944 -0.00438045 -1.0227e-23)
(1.99919 -0.00419275 -6.7739e-23)
(1.99894 -0.00393456 0)
(1.99871 -0.00360796 0)
(1.9985 -0.00321789 0)
(1.99832 -0.00277215 -1.08011e-23)
(1.99818 -0.0022811 6.22271e-24)
(1.99809 -0.00175704 0)
(1.99803 -0.00121422 1.3291e-24)
(1.99803 -0.000667662 -5.22153e-24)
(1.99807 -0.000131211 0)
(1.99815 0.000382193 0)
(1.99827 0.000861081 4.09014e-23)
(1.99842 0.00129614 -2.72204e-23)
(1.99859 0.00168058 -3.4268e-23)
(1.99877 0.00200993 7.12361e-23)
(1.99897 0.00228208 -3.69665e-23)
(1.99916 0.00249679 0)
(1.99936 0.00265562 6.29601e-23)
(1.99954 0.0027614 -4.25951e-23)
(1.99972 0.00281786 -2.272e-23)
(1.99988 0.00282937 4.53157e-23)
(2.00002 0.00280065 0)
(2.00016 0.00273647 2.29634e-23)
(2.00027 0.00264153 -4.76095e-23)
(2.00038 0.00252029 4.69093e-23)
(2.00046 0.00237696 -1.93154e-22)
(2.00054 0.00221506 9.21695e-23)
(2.0006 0.00203772 4.67983e-23)
(2.00065 0.0018478 2.41551e-23)
(2.0007 0.00164817 -2.41571e-23)
(2.00073 0.00144091 -2.41453e-23)
(2.00076 0.00122763 4.86531e-23)
(2.00078 0.00100978 2.61871e-26)
(2.0008 0.000788535 -4.85964e-23)
(2.00081 0.000564878 2.44115e-23)
(2.00082 0.000339708 0)
(2.00082 0.000113459 0)
(2.00137 -0.000139522 0)
(2.00137 -0.000419241 0)
(2.00138 -0.000700879 1.95464e-22)
(2.00139 -0.000985614 0)
(2.0014 -0.00127431 0)
(2.00141 -0.00156767 2.067e-24)
(2.00143 -0.00186611 0)
(2.00143 -0.00216959 9.14267e-23)
(2.00143 -0.00247749 8.97738e-23)
(2.00143 -0.00278855 -8.95071e-23)
(2.00141 -0.0031011 3.39642e-22)
(2.00137 -0.00341251 -3.39597e-22)
(2.00132 -0.00371866 0)
(2.00124 -0.00401428 1.84267e-21)
(2.00114 -0.00429599 3.29614e-22)
(2.00101 -0.00455551 -2.22245e-22)
(2.00085 -0.00478564 1.63266e-21)
(2.00066 -0.00497748 -4.83195e-22)
(2.00044 -0.00512225 2.3834e-22)
(2.00018 -0.00521006 0)
(1.9999 -0.00523312 1.9085e-22)
(1.99959 -0.00518321 0)
(1.99927 -0.00505286 6.76579e-23)
(1.99895 -0.00483789 -6.76766e-23)
(1.99863 -0.00453678 4.58986e-23)
(1.99832 -0.00415153 -2.61719e-23)
(1.99805 -0.00368782 0)
(1.99781 -0.00315529 1.08026e-23)
(1.99763 -0.00256692 -1.4806e-23)
(1.9975 -0.00193821 1.91828e-25)
(1.99744 -0.00128734 -1.41915e-23)
(1.99744 -0.000633434 -1.4579e-23)
(1.9975 6.11989e-06 1.62673e-23)
(1.99761 0.000615062 0)
(1.99777 0.0011793 1.78226e-23)
(1.99797 0.00168768 3.60394e-24)
(1.9982 0.00213241 2.97605e-24)
(1.99845 0.00250862 -3.80429e-23)
(1.99871 0.00281459 4.24062e-23)
(1.99897 0.00305086 -6.48713e-23)
(1.99922 0.00322005 2.30613e-23)
(1.99946 0.00332629 0)
(1.99969 0.00337475 2.27155e-23)
(1.99989 0.0033712 -2.30919e-23)
(2.00008 0.00332165 0)
(2.00025 0.00323206 0)
(2.00039 0.00310831 4.75964e-23)
(2.00052 0.00295575 -1.84968e-24)
(2.00063 0.00277929 4.62779e-25)
(2.00072 0.00258263 1.91773e-22)
(2.0008 0.00236977 4.83936e-23)
(2.00086 0.00214427 2.45179e-23)
(2.00092 0.00190904 2.44141e-23)
(2.00096 0.00166624 1.3632e-26)
(2.00099 0.00141763 -2.42669e-23)
(2.00102 0.00116474 0)
(2.00104 0.000908711 0)
(2.00105 0.000650541 -4.89362e-23)
(2.00106 0.000391077 0)
(2.00106 0.000130629 0)
(2.00166 -0.00015214 0)
(2.00167 -0.0004574 0)
(2.00168 -0.000765127 7.54365e-25)
(2.00169 -0.0010769 -9.94571e-23)
(2.00171 -0.0013939 0)
(2.00173 -0.00171718 -9.62057e-23)
(2.00174 -0.00204741 -9.52927e-23)
(2.00176 -0.00238483 1.61022e-24)
(2.00176 -0.00272908 2.00206e-24)
(2.00176 -0.00307901 8.96253e-23)
(2.00174 -0.00343281 -8.96106e-23)
(2.0017 -0.0037879 -8.71941e-23)
(2.00164 -0.00414041 1.68609e-22)
(2.00156 -0.00448366 1.29705e-21)
(2.00144 -0.00481327 2.93853e-22)
(2.00128 -0.00512117 -1.16683e-21)
(2.00109 -0.00539767 -8.01765e-22)
(2.00085 -0.00563271 5.08544e-22)
(2.00057 -0.00581536 -4.69565e-22)
(2.00025 -0.00593316 -6.44481e-22)
(1.99989 -0.00597581 -1.00093e-22)
(1.9995 -0.00593231 -4.90217e-24)
(1.99909 -0.00579275 6.76405e-23)
(1.99867 -0.00555095 -1.23555e-22)
(1.99826 -0.00520406 5.59132e-23)
(1.99786 -0.00475368 -1.97431e-23)
(1.99751 -0.00420626 0)
(1.9972 -0.0035735 -7.18688e-24)
(1.99697 -0.00287172 3.66536e-24)
(1.99681 -0.00212058 4.1845e-24)
(1.99673 -0.00134338 5.07005e-24)
(1.99673 -0.00056435 7.87591e-24)
(1.99682 0.000194527 1.35053e-23)
(1.99698 0.000912744 -2.74254e-23)
(1.9972 0.00157313 0)
(1.99746 0.00216243 -3.97659e-23)
(1.99777 0.00267189 -2.64043e-24)
(1.99809 0.00309652 4.23721e-23)
(1.99842 0.00343532 -4.59843e-23)
(1.99876 0.00369003 -2.95364e-24)
(1.99908 0.00386493 -5.6618e-25)
(1.99939 0.0039659 -7.34278e-23)
(1.99967 0.00399988 4.85478e-23)
(1.99993 0.00397444 -2.50812e-23)
(2.00016 0.00389722 -2.50967e-23)
(2.00037 0.00377564 -9.88173e-23)
(2.00055 0.00361676 2.96528e-22)
(2.0007 0.00342684 2.32473e-24)
(2.00084 0.00321164 3.95212e-22)
(2.00095 0.00297576 1.48843e-22)
(2.00104 0.00272335 -2.46981e-23)
(2.00111 0.00245865 -4.91687e-23)
(2.00117 0.00218459 -2.46189e-23)
(2.00122 0.0019034 2.46219e-23)
(2.00126 0.00161702 -2.45158e-23)
(2.00129 0.00132692 -2.45864e-23)
(2.00131 0.00103423 2.45898e-23)
(2.00132 0.000739866 -5.63795e-26)
(2.00133 0.00044458 2.4583e-23)
(2.00134 0.000148502 0)
(2.00198 -0.000163748 0)
(2.00199 -0.000492562 0)
(2.002 -0.000824511 0)
(2.00202 -0.00116161 1.01089e-22)
(2.00204 -0.00150546 -1.01071e-22)
(2.00207 -0.00185758 9.90788e-23)
(2.00209 -0.00221894 -9.90599e-23)
(2.00212 -0.0025902 0)
(2.00213 -0.00297134 0)
(2.00213 -0.00336147 -9.21813e-23)
(2.00212 -0.00375887 1.81926e-22)
(2.00208 -0.00416073 -2.58112e-24)
(2.00202 -0.00456365 -3.303e-22)
(2.00192 -0.00496029 -9.6098e-22)
(2.00178 -0.00534432 -6.13582e-22)
(2.0016 -0.00570901 6.14534e-22)
(2.00137 -0.0060413 5.59331e-22)
(2.00108 -0.00632963 -3.39146e-22)
(2.00074 -0.00656077 2.46659e-22)
(2.00035 -0.0067191 -2.67992e-23)
(1.9999 -0.00679049 3.70233e-22)
(1.99941 -0.00676084 -7.11578e-22)
(1.9989 -0.00661725 8.03338e-23)
(1.99836 -0.00635041 0)
(1.99783 -0.00595526 0)
(1.99733 -0.00543247 0)
(1.99687 -0.00478923 0)
(1.99648 -0.00403963 7.18831e-24)
(1.99617 -0.00320434 7.18935e-24)
(1.99597 -0.00230825 4.10773e-24)
(1.99588 -0.00138146 0)
(1.9959 -0.000455012 1.36641e-23)
(1.99602 0.000443228 -1.3861e-23)
(1.99623 0.00128757 1.99236e-23)
(1.99652 0.00205686 4.21909e-23)
(1.99688 0.00273575 -6.56778e-23)
(1.99727 0.00331449 -4.7308e-23)
(1.99769 0.00378842 2.18618e-23)
(1.99812 0.00415784 0)
(1.99854 0.00442637 2.42546e-23)
(1.99894 0.00460055 -1.71744e-24)
(1.99933 0.00468867 -1.4868e-24)
(1.99968 0.00470004 -2.62838e-23)
(2 0.00464438 -5.22384e-23)
(2.00028 0.00453131 7.62314e-23)
(2.00053 0.00436992 -2.03212e-22)
(2.00074 0.00416866 2.03171e-22)
(2.00093 0.00393482 -3.99586e-22)
(2.00108 0.00367486 4.56079e-22)
(2.00121 0.00339449 -1.49672e-22)
(2.00132 0.00309807 0)
(2.0014 0.00279025 2.48738e-23)
(2.00147 0.00247394 -2.48771e-23)
(2.00153 0.00215149 0)
(2.00157 0.00182489 0)
(2.0016 0.00149555 0)
(2.00162 0.00116448 0)
(2.00164 0.000832413 0)
(2.00165 0.000499951 0)
(2.00165 0.000166986 0)
(2.00232 -0.000174096 0)
(2.00233 -0.000524002 0)
(2.00235 -0.000877809 0)
(2.00237 -0.00123807 0)
(2.00241 -0.00160684 0)
(2.00244 -0.00198622 -1.01719e-22)
(2.00248 -0.00237767 2.0212e-22)
(2.00251 -0.00278231 -1.00411e-22)
(2.00254 -0.00320059 9.71071e-23)
(2.00255 -0.00363205 -2.05349e-24)
(2.00254 -0.00407524 -9.50174e-23)
(2.00251 -0.0045274 0)
(2.00245 -0.00498524 1.73444e-22)
(2.00234 -0.0054419 4.93714e-22)
(2.00219 -0.00588904 -3.27181e-21)
(2.00198 -0.0063192 1.27375e-21)
(2.00171 -0.00671816 -5.85295e-22)
(2.00137 -0.00707205 -2.65981e-24)
(2.00096 -0.00736484 -3.10565e-22)
(2.00049 -0.00757702 4.31758e-22)
(1.99994 -0.00768963 8.2457e-22)
(1.99933 -0.0076851 -4.26503e-24)
(1.99869 -0.0075458 0)
(1.99801 -0.00725774 5.39608e-23)
(1.99734 -0.00681263 -1.39225e-23)
(1.9967 -0.00620946 -4.00948e-23)
(1.99611 -0.00545586 0)
(1.99562 -0.00456886 0)
(1.99523 -0.00357452 3.3581e-24)
(1.99498 -0.00250489 -1.06722e-23)
(1.99487 -0.00139898 2.80373e-23)
(1.99491 -0.000296811 -1.39194e-23)
(1.99507 0.000765818 0)
(1.99536 0.00175665 -6.53252e-23)
(1.99575 0.00265 1.97427e-23)
(1.99621 0.00342794 4.78123e-23)
(1.99671 0.00408022 -5.11757e-23)
(1.99725 0.00460317 2.54204e-23)
(1.99779 0.00499917 2.59701e-23)
(1.99832 0.00527468 -8.26595e-23)
(1.99882 0.00543937 -1.84093e-24)
(1.99929 0.00550471 -1.5731e-24)
(1.99972 0.00548309 2.62719e-23)
(2.0001 0.00538687 -1.12152e-24)
(2.00044 0.00522812 0)
(2.00073 0.0050178 4.02564e-24)
(2.00099 0.00476573 2.08707e-22)
(2.0012 0.00448032 -4.16516e-22)
(2.00138 0.00416891 3.24903e-23)
(2.00152 0.00383839 -2.55041e-23)
(2.00164 0.00349311 0)
(2.00174 0.00313801 2.50998e-23)
(2.00181 0.00277598 -2.51036e-23)
(2.00187 0.00240944 0)
(2.00191 0.00204029 0)
(2.00195 0.00166976 0)
(2.00197 0.00129873 2.48016e-23)
(2.00199 0.000927638 -2.48049e-23)
(2.002 0.000556873 0)
(2.00201 0.000185975 0)
(2.00268 -0.000182879 0)
(2.00269 -0.000550788 0)
(2.00272 -0.000923501 0)
(2.00275 -0.00130411 0)
(2.00279 -0.00169528 0)
(2.00284 -0.00209977 1.0458e-22)
(2.00289 -0.00251964 -2.07912e-22)
(2.00294 -0.00295664 1.42813e-24)
(2.00298 -0.00341185 1.68946e-24)
(2.00301 -0.00388533 -9.62194e-23)
(2.00302 -0.00437627 2.92225e-22)
(2.00299 -0.00488215 -2.64542e-24)
(2.00293 -0.00539978 -9.31852e-23)
(2.00283 -0.0059229 1.73066e-22)
(2.00266 -0.00644232 1.01606e-21)
(2.00243 -0.00694857 9.75651e-22)
(2.00213 -0.00742767 -3.28883e-23)
(2.00173 -0.00786249 -9.73766e-23)
(2.00125 -0.00823356 -2.08462e-22)
(2.00068 -0.0085172 6.87006e-22)
(2.00002 -0.00868848 6.63718e-22)
(1.99928 -0.00872462 1.79029e-22)
(1.99847 -0.00860163 0)
(1.99763 -0.00829907 5.29094e-23)
(1.99679 -0.00780371 -1.54143e-23)
(1.99597 -0.00711158 -3.75604e-23)
(1.99523 -0.00623026 -6.1514e-24)
(1.99459 -0.00518008 0)
(1.99411 -0.00399428 1.58545e-23)
(1.99379 -0.00271424 -4.14906e-23)
(1.99367 -0.00139126 1.38907e-23)
(1.99373 -7.73862e-05 -4.38291e-23)
(1.99396 0.00118111 6.71811e-23)
(1.99435 0.00234326 4.13425e-24)
(1.99485 0.00337819 -2.78214e-23)
(1.99544 0.0042653 2.69048e-23)
(1.99609 0.00499442 0)
(1.99677 0.00556401 0)
(1.99744 0.00597976 -3.07329e-23)
(1.9981 0.00625225 5.6782e-23)
(1.99871 0.00639554 2.81642e-23)
(1.99928 0.00642517 -1.6329e-24)
(1.9998 0.00635741 -5.79075e-23)
(2.00025 0.00620795 -8.31824e-23)
(2.00065 0.00599154 3.33196e-22)
(2.00099 0.00572118 -2.12796e-22)
(2.00128 0.00540826 1.05777e-22)
(2.00152 0.00506305 3.10609e-22)
(2.00172 0.00469318 -3.60823e-22)
(2.00189 0.00430648 -5.17651e-23)
(2.00202 0.0039072 0)
(2.00212 0.00350052 -2.53054e-23)
(2.0022 0.00308928 2.5311e-23)
(2.00226 0.00267586 0)
(2.0023 0.00226196 2.49973e-23)
(2.00234 0.00184852 -2.5001e-23)
(2.00236 0.00143617 0)
(2.00238 0.00102496 0)
(2.00239 0.000614979 0)
(2.0024 0.000205353 0)
(2.00306 -0.00018974 0)
(2.00307 -0.000571887 0)
(2.0031 -0.000959835 0)
(2.00315 -0.00135728 0)
(2.0032 -0.00176758 0)
(2.00327 -0.00219426 0)
(2.00334 -0.00264011 1.06534e-22)
(2.00341 -0.0031077 -1.32466e-24)
(2.00347 -0.00359884 1.01993e-22)
(2.00352 -0.0041145 -1.0542e-22)
(2.00354 -0.0046546 9.72528e-23)
(2.00354 -0.00521726 -1.98848e-22)
(2.00349 -0.0057997 1.87736e-22)
(2.00339 -0.00639632 -6.83959e-24)
(2.00322 -0.00699779 -1.60002e-21)
(2.00297 -0.00759314 3.2795e-22)
(2.00263 -0.00816794 6.18037e-22)
(2.00218 -0.00870202 4.63125e-23)
(2.00162 -0.00917214 -2.50574e-23)
(2.00095 -0.00954977 -7.67381e-22)
(2.00016 -0.0098028 7.79163e-23)
(1.99926 -0.00990127 8.55396e-23)
(1.99827 -0.00981245 -1.24911e-22)
(1.99722 -0.00950681 -3.02876e-23)
(1.99616 -0.00896361 0)
(1.99513 -0.00817378 -1.19548e-23)
(1.99418 -0.00714393 6.15232e-24)
(1.99338 -0.00589823 1.30712e-23)
(1.99276 -0.00447903 -1.58091e-23)
(1.99237 -0.00294078 5.23332e-23)
(1.99223 -0.00135136 -1.8805e-23)
(1.99233 0.000220432 5.40776e-23)
(1.99265 0.00171428 -2.80043e-23)
(1.99316 0.00307812 9.63709e-23)
(1.99382 0.00427466 2.13307e-24)
(1.99459 0.00528106 -9.99532e-23)
(1.99541 0.00608845 -6.58528e-23)
(1.99626 0.00669902 6.58048e-23)
(1.9971 0.00712375 0)
(1.9979 0.00737903 3.06046e-23)
(1.99865 0.00748476 -3.20951e-23)
(1.99933 0.00746195 -3.28327e-23)
(1.99993 0.00733157 -2.7071e-24)
(2.00046 0.00711334 0)
(2.00092 0.00682508 2.36694e-22)
(2.00132 0.00648212 -4.48751e-22)
(2.00164 0.00609743 -1.65759e-22)
(2.00191 0.00568275 -5.39554e-23)
(2.00213 0.00524655 2.62122e-23)
(2.00231 0.00479703 -1.82807e-22)
(2.00244 0.00433828 7.75362e-23)
(2.00255 0.00387576 -2.56841e-23)
(2.00263 0.00341191 0)
(2.00269 0.002949 0)
(2.00274 0.00248834 0)
(2.00277 0.00203048 -2.50226e-23)
(2.00279 0.00157571 5.87322e-26)
(2.00281 0.00112359 2.49751e-23)
(2.00282 0.000673794 0)
(2.00282 0.000224967 0)
(2.00345 -0.000194282 1.13066e-22)
(2.00347 -0.00058613 -1.1342e-22)
(2.00351 -0.000984851 0)
(2.00356 -0.0013948 1.12401e-22)
(2.00363 -0.00182013 -1.12374e-22)
(2.00372 -0.00226517 0)
(2.00381 -0.00273367 -1.09943e-22)
(2.0039 -0.00322914 1.19338e-24)
(2.00399 -0.00375436 2.15929e-22)
(2.00407 -0.00431141 1.0375e-22)
(2.00412 -0.0049013 -1.07507e-22)
(2.00414 -0.00552324 -1.03351e-22)
(2.00412 -0.00617521 0)
(2.00403 -0.00685251 0)
(2.00387 -0.00754659 1.62942e-22)
(2.00361 -0.00824515 5.26025e-22)
(2.00324 -0.0089337 -6.71336e-22)
(2.00274 -0.00958912 4.57379e-22)
(2.00211 -0.0101842 -2.64879e-23)
(2.00132 -0.0106847 -5.47718e-22)
(2.00038 -0.0110501 -1.54231e-21)
(1.9993 -0.011241 1.77095e-22)
(1.99809 -0.0112124 -1.49101e-22)
(1.99679 -0.0109223 -3.9868e-23)
(1.99546 -0.0103382 0)
(1.99415 -0.00944284 1.19541e-23)
(1.99295 -0.00823976 0)
(1.99192 -0.0067574 1.12545e-23)
(1.99114 -0.00505024 7.30004e-24)
(1.99066 -0.00319065 -8.83828e-23)
(1.9905 -0.00127002 1.83484e-22)
(1.99065 0.000619907 7.11313e-24)
(1.9911 0.00239915 -6.61436e-23)
(1.99178 0.0040014 6.06328e-24)
(1.99265 0.00538199 -3.45053e-23)
(1.99363 0.00651677 1.09681e-22)
(1.99468 0.00740033 0)
(1.99574 0.0080413 0)
(1.99677 0.00845852 -6.9547e-23)
(1.99774 0.00867666 2.18466e-24)
(1.99863 0.00872328 1.33462e-22)
(1.99943 0.0086265 -3.25523e-24)
(2.00014 0.0084132 -2.5942e-24)
(2.00076 0.00810768 2.43657e-22)
(2.00128 0.00773096 -1.40161e-21)
(2.00172 0.00730068 5.60552e-22)
(2.00208 0.00683158 1.07425e-22)
(2.00237 0.00633726 0)
(2.00261 0.00582624 0)
(2.00279 0.00530698 1.04692e-22)
(2.00293 0.00478333 2.58505e-23)
(2.00304 0.00426078 -2.58549e-23)
(2.00312 0.00374115 0)
(2.00318 0.00322639 -2.52818e-23)
(2.00322 0.00271731 2.52867e-23)
(2.00325 0.00221393 0)
(2.00326 0.00171601 0)
(2.00328 0.00122255 2.49839e-23)
(2.00328 0.000732702 -2.49902e-23)
(2.00329 0.00024461 0)
(2.00384 -0.000196141 0)
(2.00387 -0.000592333 0)
(2.00392 -0.000996494 -1.16059e-22)