/*--------------------------------*- C++ -*----------------------------------*\
  =========                 |
  \\      /  F ield         | OpenFOAM: The Open Source CFD Toolbox
   \\    /   O peration     | Website:  https://openfoam.org
    \\  /    A nd           | Version:  12
     \\/     M anipulation  |
\*---------------------------------------------------------------------------*/
FoamFile
{
    format      ascii;
    class       volScalarField;
    location    "120";
    object      k;
}
// * * * * * * * * * * * * * * * * * * * * * * * * * * * * * * * * * * * * * //

dimensions      [0 2 -2 0 0 0 0];

internalField   nonuniform List<scalar> 
16227
(
0.00914646
0.00914648
0.00914647
0.00914651
0.0091465
0.00914654
0.00914653
0.00914651
0.00914651
0.00914653
0.00914657
0.00914659
0.00914665
0.00914665
0.00914665
0.00914665
0.00914665
0.00914665
0.00914665
0.00914665
0.00914665
0.00914665
0.00914665
0.00914665
0.00914665
0.00914665
0.00914665
0.00914666
0.00914667
0.00914664
0.00914665
0.00914665
0.00914665
0.00914665
0.00914665
0.00914665
0.00914665
0.00914665
0.00914665
0.00914665
0.00914665
0.00914665
0.00914665
0.00914665
0.00914665
0.00914665
0.00914665
0.00914663
0.00914662
0.00914662
0.00914662
0.00914661
0.00914654
0.00914654
0.00914649
0.00914649
0.00914651
0.00914649
0.00914647
0.00914646
0.00848123
0.00848125
0.00848124
0.00848127
0.00848128
0.00848131
0.0084813
0.00848128
0.00848129
0.0084813
0.00848135
0.00848137
0.00848152
0.00848157
0.00848159
0.00848159
0.00848159
0.00848159
0.00848159
0.00848158
0.0084816
0.00848161
0.00848161
0.00848161
0.00848161
0.00848161
0.00848161
0.0084816
0.00848159
0.00848153
0.00848159
0.00848161
0.00848161
0.00848161
0.0084816
0.00848159
0.00848158
0.00848158
0.00848158
0.00848158
0.00848158
0.00848158
0.00848158
0.00848156
0.00848156
0.00848155
0.00848155
0.00848155
0.00848155
0.00848154
0.00848151
0.00848145
0.00848134
0.00848132
0.00848129
0.00848126
0.0084813
0.00848122
0.00848124
0.00848121
0.00790076
0.00790078
0.00790078
0.0079008
0.00790079
0.00790088
0.00790084
0.00790082
0.00790083
0.00790084
0.00790089
0.0079009
0.00790116
0.00790122
0.00790123
0.00790124
0.00790123
0.00790123
0.00790125
0.0079012
0.00790124
0.00790124
0.00790124
0.00790124
0.00790124
0.00790124
0.00790123
0.00790124
0.00790123
0.00790115
0.00790121
0.00790123
0.00790123
0.00790123
0.00790123
0.00790123
0.00790123
0.00790122
0.00790121
0.00790121
0.00790121
0.00790121
0.0079012
0.00790119
0.00790119
0.00790119
0.00790118
0.00790118
0.00790117
0.00790114
0.00790111
0.00790091
0.00790083
0.00790082
0.0079008
0.00790079
0.00790082
0.00790073
0.00790074
0.00790072
0.00739024
0.00739026
0.00739026
0.00739028
0.00739028
0.00739035
0.00739035
0.00739032
0.00739032
0.00739032
0.00739036
0.00739042
0.00739069
0.00739076
0.00739078
0.00739079
0.0073908
0.00739081
0.00739075
0.00739062
0.00739073
0.00739077
0.00739077
0.00739077
0.00739078
0.00739077
0.00739077
0.00739076
0.00739074
0.00739065
0.00739073
0.00739075
0.00739074
0.00739075
0.00739075
0.00739076
0.00739076
0.00739076
0.00739076
0.00739076
0.00739076
0.00739075
0.00739075
0.00739075
0.00739074
0.00739073
0.00739074
0.00739073
0.00739073
0.0073907
0.00739058
0.00739038
0.00739028
0.0073903
0.0073903
0.00739031
0.00739029
0.00739021
0.00739022
0.00739019
0.00693808
0.00693809
0.00693809
0.00693811
0.00693812
0.00693818
0.00693821
0.00693814
0.00693815
0.00693816
0.00693819
0.00693825
0.0069385
0.00693863
0.00693865
0.00693865
0.00693865
0.00693863
0.00693841
0.00693834
0.00693854
0.0069386
0.0069386
0.00693859
0.00693858
0.00693858
0.00693857
0.00693857
0.00693854
0.00693845
0.00693854
0.00693857
0.00693858
0.00693858
0.00693858
0.00693859
0.0069386
0.00693862
0.00693862
0.00693862
0.00693863
0.00693864
0.00693863
0.00693863
0.00693863
0.00693864
0.00693864
0.00693863
0.00693863
0.00693854
0.0069383
0.00693818
0.0069381
0.00693813
0.00693815
0.0069382
0.00693813
0.00693806
0.00693806
0.00693804
0.00653505
0.00653507
0.00653506
0.00653508
0.00653508
0.00653513
0.00653517
0.00653512
0.0065351
0.00653509
0.0065351
0.00653514
0.00653526
0.00653554
0.00653561
0.00653562
0.00653562
0.00653551
0.00653528
0.00653524
0.00653546
0.00653552
0.00653551
0.00653549
0.00653548
0.00653548
0.00653547
0.00653546
0.00653544
0.00653534
0.00653544
0.00653547
0.00653549
0.00653551
0.00653552
0.00653554
0.00653556
0.00653558
0.00653559
0.00653561
0.00653562
0.00653563
0.00653564
0.00653566
0.00653566
0.00653566
0.00653566
0.00653567
0.00653566
0.00653551
0.00653527
0.00653515
0.00653511
0.00653516
0.0065352
0.00653519
0.00653513
0.00653507
0.00653507
0.00653505
0.00617376
0.00617377
0.00617377
0.00617378
0.00617378
0.00617382
0.00617386
0.00617384
0.0061738
0.00617379
0.00617377
0.00617377
0.00617388
0.00617414
0.00617427
0.00617429
0.00617426
0.00617397
0.00617385
0.00617385
0.00617407
0.00617412
0.0061741
0.00617409
0.00617407
0.00617406
0.00617405
0.00617404
0.00617402
0.00617392
0.00617403
0.00617407
0.0061741
0.00617413
0.00617416
0.00617419
0.00617422
0.00617426
0.00617429
0.00617433
0.00617435
0.00617437
0.00617439
0.00617441
0.00617443
0.00617444
0.00617444
0.00617445
0.00617438
0.00617411
0.00617397
0.00617389
0.00617389
0.00617395
0.00617396
0.00617395
0.0061739
0.00617385
0.00617386
0.00617383
0.0058482
0.00584821
0.0058482
0.00584822
0.00584821
0.00584824
0.00584828
0.00584827
0.00584823
0.00584819
0.00584816
0.00584812
0.00584817
0.0058483
0.00584859
0.00584867
0.0058486
0.00584826
0.00584816
0.00584816
0.00584838
0.00584843
0.0058484
0.00584837
0.00584834
0.00584833
0.00584832
0.00584831
0.00584829
0.00584819
0.00584832
0.00584837
0.00584842
0.00584846
0.0058485
0.00584856
0.00584861
0.00584866
0.00584871
0.00584876
0.00584881
0.00584884
0.00584888
0.00584891
0.00584894
0.00584895
0.00584897
0.00584897
0.00584884
0.00584858
0.00584845
0.00584841
0.00584846
0.00584849
0.00584849
0.00584848
0.00584844
0.00584839
0.00584839
0.00584838
0.00555345
0.00555345
0.00555346
0.00555345
0.00555345
0.00555347
0.0055535
0.00555348
0.00555347
0.00555341
0.00555336
0.0055533
0.00555331
0.0055534
0.00555374
0.00555383
0.00555368
0.00555336
0.00555327
0.00555325
0.00555347
0.0055535
0.00555345
0.00555342
0.00555339
0.00555337
0.00555335
0.00555335
0.00555333
0.00555324
0.00555337
0.00555344
0.0055535
0.00555357
0.00555363
0.0055537
0.00555378
0.00555386
0.00555393
0.00555399
0.00555406
0.00555413
0.00555417
0.00555422
0.00555426
0.0055543
0.00555431
0.00555425
0.00555398
0.00555385
0.00555377
0.00555381
0.00555382
0.00555385
0.00555385
0.00555385
0.00555382
0.00555376
0.00555377
0.00555376
0.00528544
0.00528544
0.00528543
0.00528544
0.00528542
0.00528544
0.00528546
0.00528543
0.00528541
0.00528538
0.00528531
0.00528522
0.00528522
0.00528531
0.00528558
0.00528566
0.00528535
0.00528515
0.00528507
0.00528506
0.00528525
0.00528527
0.00528522
0.00528517
0.00528513
0.0052851
0.00528509
0.00528508
0.00528506
0.00528498
0.00528513
0.00528522
0.00528529
0.00528538
0.00528548
0.00528557
0.00528568
0.00528578
0.00528589
0.00528597
0.00528606
0.00528614
0.00528622
0.00528629
0.00528634
0.00528639
0.00528641
0.00528632
0.00528604
0.00528593
0.00528592
0.00528593
0.00528595
0.00528598
0.00528598
0.00528599
0.00528595
0.00528591
0.00528591
0.00528591
0.00504076
0.00504077
0.00504076
0.00504075
0.00504075
0.00504075
0.00504076
0.00504072
0.00504069
0.00504065
0.0050406
0.00504048
0.00504042
0.00504045
0.00504055
0.00504075
0.00504046
0.00504029
0.00504021
0.00504018
0.0050403
0.00504035
0.00504029
0.00504022
0.00504017
0.00504014
0.00504011
0.00504011
0.00504011
0.00504003
0.00504019
0.0050403
0.00504041
0.00504052
0.00504064
0.00504078
0.00504091
0.00504104
0.00504117
0.0050413
0.00504141
0.00504152
0.00504162
0.0050417
0.00504178
0.00504182
0.00504178
0.00504164
0.00504148
0.0050414
0.0050414
0.00504142
0.00504144
0.00504148
0.00504149
0.00504149
0.00504146
0.00504142
0.00504142
0.00504142
0.00481658
0.00481658
0.00481657
0.00481657
0.00481655
0.00481655
0.00481654
0.00481652
0.00481647
0.00481641
0.00481635
0.00481625
0.00481614
0.00481612
0.00481616
0.00481632
0.00481609
0.00481593
0.00481581
0.00481574
0.00481571
0.00481584
0.00481581
0.00481573
0.00481567
0.00481562
0.0048156
0.0048156
0.00481559
0.00481553
0.00481572
0.00481585
0.00481598
0.00481612
0.00481628
0.00481645
0.00481661
0.00481679
0.00481695
0.0048171
0.00481726
0.00481739
0.00481751
0.00481763
0.00481771
0.00481773
0.0048176
0.00481754
0.00481746
0.0048174
0.00481741
0.00481743
0.00481746
0.00481749
0.0048175
0.00481751
0.00481748
0.00481744
0.00481745
0.00481744
0.00461048
0.00461048
0.00461047
0.00461046
0.00461044
0.00461043
0.00461041
0.00461038
0.00461032
0.00461025
0.00461018
0.00461007
0.00460996
0.00460985
0.0046098
0.00460979
0.00460973
0.00460962
0.00460948
0.00460937
0.00460928
0.00460943
0.00460939
0.00460929
0.00460921
0.00460915
0.00460912
0.00460912
0.00460913
0.00460908
0.00460928
0.00460944
0.0046096
0.00460979
0.00460998
0.00461019
0.0046104
0.00461061
0.00461082
0.00461101
0.00461119
0.00461136
0.00461151
0.00461164
0.00461173
0.00461173
0.00461163
0.00461162
0.00461154
0.00461149
0.00461151
0.00461154
0.00461158
0.00461161
0.00461162
0.00461162
0.0046116
0.00461157
0.00461158
0.00461157
0.00442041
0.00442042
0.0044204
0.00442038
0.00442036
0.00442034
0.00442031
0.00442027
0.0044202
0.00442013
0.00442004
0.00441991
0.00441979
0.00441967
0.00441954
0.00441948
0.00441946
0.00441933
0.00441917
0.00441903
0.00441891
0.00441903
0.00441896
0.00441884
0.00441874
0.00441867
0.00441864
0.00441863
0.00441865
0.00441862
0.00441884
0.00441903
0.00441923
0.00441945
0.00441969
0.00441994
0.00442021
0.00442046
0.00442071
0.00442095
0.00442116
0.00442137
0.00442154
0.00442169
0.00442173
0.0044217
0.00442171
0.00442172
0.00442167
0.00442165
0.00442167
0.00442171
0.00442174
0.00442177
0.00442179
0.0044218
0.00442177
0.00442175
0.00442175
0.00442175
0.00424461
0.00424461
0.0042446
0.00424457
0.00424454
0.00424452
0.00424449
0.00424443
0.00424436
0.00424427
0.00424417
0.00424403
0.00424389
0.00424375
0.00424361
0.00424352
0.00424347
0.00424332
0.00424312
0.00424295
0.00424279
0.00424287
0.00424278
0.00424263
0.00424251
0.00424243
0.00424238
0.00424238
0.00424239
0.00424238
0.00424263
0.00424286
0.0042431
0.00424337
0.00424366
0.00424396
0.00424427
0.00424459
0.00424488
0.00424516
0.00424542
0.00424566
0.00424586
0.00424599
0.00424596
0.00424602
0.00424607
0.00424611
0.00424609
0.00424608
0.00424613
0.00424616
0.00424619
0.00424623
0.00424624
0.00424625
0.00424623
0.00424622
0.00424622
0.00424621
0.00408157
0.00408157
0.00408155
0.00408153
0.00408149
0.00408147
0.00408143
0.00408136
0.00408128
0.00408118
0.00408106
0.00408091
0.00408076
0.00408059
0.00408043
0.00408032
0.00408023
0.00408005
0.00407981
0.00407961
0.00407942
0.0040794
0.00407932
0.00407915
0.004079
0.00407889
0.00407884
0.00407883
0.00407886
0.00407887
0.00407914
0.00407941
0.00407969
0.00408002
0.00408036
0.00408073
0.0040811
0.00408147
0.00408181
0.00408214
0.00408245
0.00408272
0.00408295
0.00408306
0.00408307
0.00408315
0.00408323
0.00408324
0.00408325
0.00408329
0.00408335
0.00408339
0.00408342
0.00408346
0.00408348
0.00408348
0.00408347
0.00408345
0.00408345
0.00408344
0.00392998
0.00392998
0.00392996
0.00392993
0.0039299
0.00392986
0.00392982
0.00392974
0.00392965
0.00392954
0.00392941
0.00392924
0.00392907
0.00392888
0.0039287
0.00392856
0.00392845
0.00392822
0.00392796
0.00392769
0.00392745
0.00392726
0.00392724
0.00392709
0.00392691
0.00392678
0.0039267
0.00392669
0.00392673
0.00392676
0.00392706
0.00392737
0.00392771
0.00392809
0.00392851
0.00392894
0.00392938
0.0039298
0.00393021
0.00393059
0.00393095
0.00393124
0.00393143
0.00393153
0.00393165
0.00393178
0.00393188
0.0039319
0.00393192
0.00393199
0.00393204
0.00393209
0.00393212
0.00393216
0.00393218
0.00393218
0.00393217
0.00393215
0.00393215
0.00393214
0.00378871
0.0037887
0.00378869
0.00378866
0.00378861
0.00378858
0.00378852
0.00378844
0.00378834
0.00378822
0.00378807
0.00378789
0.0037877
0.0037875
0.00378728
0.00378711
0.00378696
0.00378672
0.0037864
0.00378609
0.00378579
0.00378552
0.00378549
0.00378531
0.00378509
0.00378493
0.00378483
0.00378481
0.00378485
0.00378491
0.00378525
0.00378561
0.00378601
0.00378646
0.00378695
0.00378746
0.00378797
0.00378846
0.00378894
0.00378937
0.00378977
0.00379007
0.00379019
0.00379038
0.00379057
0.00379074
0.00379085
0.00379089
0.00379093
0.003791
0.00379107
0.00379111
0.00379114
0.00379118
0.0037912
0.0037912
0.00379118
0.00379117
0.00379117
0.00379116
0.00365676
0.00365675
0.00365673
0.0036567
0.00365665
0.00365661
0.00365655
0.00365646
0.00365635
0.00365622
0.00365607
0.00365587
0.00365566
0.00365543
0.00365519
0.00365499
0.0036548
0.00365451
0.00365417
0.00365381
0.00365346
0.00365314
0.003653
0.0036528
0.00365255
0.00365235
0.00365223
0.0036522
0.00365225
0.00365233
0.00365271
0.00365313
0.0036536
0.00365413
0.0036547
0.0036553
0.00365589
0.00365646
0.00365699
0.00365748
0.00365792
0.00365823
0.0036584
0.00365864
0.00365886
0.00365904
0.00365913
0.00365919
0.00365927
0.00365936
0.00365942
0.00365946
0.0036595
0.00365954
0.00365954
0.00365955
0.00365953
0.00365951
0.00365951
0.00365951
0.00353325
0.00353325
0.00353323
0.00353319
0.00353314
0.0035331
0.00353303
0.00353293
0.00353282
0.00353268
0.00353251
0.0035323
0.00353208
0.00353183
0.00353157
0.00353131
0.00353108
0.00353077
0.00353039
0.00352998
0.00352955
0.00352916
0.00352883
0.00352868
0.00352842
0.00352818
0.00352803
0.00352798
0.00352804
0.00352815
0.00352858
0.00352907
0.00352962
0.00353024
0.00353091
0.00353159
0.00353227
0.00353292
0.0035335
0.00353401
0.00353445
0.00353479
0.00353508
0.00353537
0.00353563
0.0035358
0.0035359
0.00353599
0.00353609
0.00353617
0.00353624
0.00353628
0.00353631
0.00353634
0.00353635
0.00353635
0.00353633
0.00353631
0.00353631
0.0035363
0.00341743
0.00341743
0.0034174
0.00341737
0.00341732
0.00341727
0.0034172
0.00341709
0.00341697
0.00341682
0.00341665
0.00341643
0.00341619
0.00341592
0.00341562
0.0034153
0.00341501
0.00341469
0.00341429
0.00341383
0.00341335
0.00341287
0.00341245
0.00341226
0.00341194
0.00341165
0.00341146
0.0034114
0.00341146
0.0034116
0.00341208
0.00341265
0.0034133
0.00341403
0.0034148
0.00341559
0.00341636
0.00341707
0.00341771
0.00341828
0.00341871
0.00341912
0.0034195
0.00341984
0.0034201
0.00342025
0.00342037
0.00342049
0.0034206
0.00342069
0.00342075
0.00342078
0.00342081
0.00342083
0.00342084
0.00342083
0.00342081
0.0034208
0.00342079
0.00342078
0.00330861
0.00330861
0.00330858
0.00330855
0.00330849
0.00330844
0.00330837
0.00330826
0.00330814
0.00330798
0.00330779
0.00330757
0.00330731
0.00330702
0.0033067
0.00330634
0.00330601
0.00330566
0.00330521
0.0033047
0.00330415
0.00330362
0.00330311
0.00330281
0.00330244
0.00330208
0.00330185
0.00330176
0.00330183
0.00330202
0.00330256
0.00330322
0.00330399
0.00330484
0.00330574
0.00330664
0.00330748
0.00330826
0.00330898
0.00330961
0.00331009
0.00331056
0.00331099
0.00331134
0.0033116
0.00331176
0.00331189
0.00331203
0.00331213
0.00331221
0.00331227
0.0033123
0.00331232
0.00331234
0.00331233
0.00331232
0.0033123
0.00331228
0.00331228
0.00331226
0.0032062
0.00320619
0.00320617
0.00320613
0.00320608
0.00320602
0.00320595
0.00320584
0.00320571
0.00320555
0.00320536
0.00320512
0.00320486
0.00320455
0.0032042
0.00320382
0.00320344
0.00320304
0.00320256
0.00320199
0.00320139
0.00320076
0.00320019
0.0031997
0.00319939
0.00319896
0.00319867
0.00319857
0.00319866
0.00319888
0.0031995
0.00320028
0.00320118
0.00320217
0.00320321
0.00320424
0.00320505
0.0032059
0.00320663
0.00320733
0.00320794
0.00320847
0.00320892
0.00320926
0.00320949
0.00320968
0.00320984
0.00320998
0.00321008
0.00321015
0.0032102
0.00321022
0.00321023
0.00321024
0.00321023
0.00321022
0.00321019
0.00321017
0.00321016
0.00321015
0.00310965
0.00310964
0.00310961
0.00310958
0.00310953
0.00310947
0.00310939
0.00310929
0.00310916
0.003109
0.0031088
0.00310856
0.00310828
0.00310797
0.0031076
0.00310719
0.00310674
0.00310628
0.00310578
0.00310518
0.00310452
0.00310382
0.00310316
0.00310277
0.0031492
0.00314879
0.00314847
0.00314835
0.00314844
0.00314869
0.00314935
0.0031502
0.00315117
0.00315224
0.00315337
0.00315447
0.00310922
0.0031095
0.00311032
0.00311108
0.00311175
0.00311231
0.00311276
0.00311307
0.0031133
0.00311351
0.00311369
0.00311382
0.00311391
0.00311397
0.003114
0.00311401
0.00311401
0.00311401
0.00311399
0.00311397
0.00311395
0.00311392
0.0031139
0.00311389
0.00301848
0.00301848
0.00301845
0.00301842
0.00301837
0.00301831
0.00301824
0.00301813
0.003018
0.00301784
0.00301764
0.0030174
0.00301712
0.00301679
0.00301642
0.00301598
0.00301549
0.00301496
0.00301441
0.00301381
0.0030131
0.00301234
0.00301183
0.00305547
0.00305325
0.00305294
0.00305255
0.00305239
0.00305249
0.00305279
0.00305355
0.00305453
0.00305566
0.0030569
0.0030582
0.00305938
0.00306236
0.00301923
0.00301958
0.00302037
0.00302106
0.00302162
0.00302205
0.00302234
0.00302258
0.00302279
0.00302295
0.00302306
0.00302314
0.00302318
0.0030232
0.00302319
0.00302318
0.00302317
0.00302314
0.00302311
0.00302308
0.00302305
0.00302303
0.00302301
0.00293228
0.00293227
0.00293225
0.00293221
0.00293217
0.00293211
0.00293204
0.00293194
0.00293181
0.00293165
0.00293146
0.00293121
0.00293094
0.00293061
0.00293022
0.00292978
0.00292926
0.00292869
0.0029281
0.00292746
0.00292672
0.00292592
0.0029255
0.002965
0.00296296
0.0029844
0.00298406
0.00298392
0.00298405
0.0029844
0.00298523
0.00298628
0.00298751
0.00298888
0.00299032
0.0029703
0.00297279
0.00293406
0.002934
0.00293476
0.00293543
0.00293595
0.00293632
0.00293662
0.00293686
0.00293705
0.00293719
0.00293728
0.00293733
0.00293736
0.00293735
0.00293734
0.00293731
0.00293728
0.00293725
0.00293721
0.00293716
0.00293713
0.00293711
0.00293709
0.00285065
0.00285064
0.00285062
0.00285059
0.00285054
0.00285049
0.00285042
0.00285032
0.0028502
0.00285005
0.00284986
0.00284963
0.00284935
0.00284903
0.00284865
0.00284819
0.00284767
0.00284708
0.00284643
0.00284574
0.00284501
0.00284422
0.00284394
0.00287962
0.00287793
0.00289705
0.00289715
0.00289712
0.00289734
0.00289779
0.00289858
0.00289961
0.00290087
0.00290233
0.00290382
0.00288685
0.00288836
0.00285374
0.00285322
0.00285388
0.00285446
0.00285491
0.00285525
0.00285554
0.00285576
0.00285592
0.00285603
0.00285609
0.00285611
0.00285611
0.00285609
0.00285605
0.00285601
0.00285596
0.00285592
0.00285587
0.00285582
0.00285578
0.00285575
0.00285573
0.00277324
0.00277323
0.00277322
0.00277319
0.00277315
0.0027731
0.00277304
0.00277295
0.00277283
0.00277269
0.00277251
0.00277228
0.00277202
0.00277171
0.00277133
0.00277089
0.00277038
0.00276978
0.00276911
0.00276839
0.00276765
0.00276692
0.00276688
0.0027992
0.00279787
0.0028147
0.0028158
0.00281618
0.00281688
0.00281773
0.00281864
0.00281949
0.00282044
0.00282155
0.00282285
0.00280849
0.00280893
0.00277795
0.00277693
0.00277737
0.00277783
0.0027782
0.00277851
0.00277876
0.00277893
0.00277905
0.00277911
0.00277914
0.00277913
0.00277909
0.00277905
0.00277899
0.00277893
0.00277887
0.00277881
0.00277875
0.00277869
0.00277864
0.00277862
0.00277859
0.00269975
0.00269974
0.00269973
0.0026997
0.00269967
0.00269962
0.00269957
0.00269949
0.00269938
0.00269925
0.00269909
0.00269888
0.00269863
0.00269833
0.00269798
0.00269755
0.00269706
0.00269649
0.00269584
0.00269514
0.00269442
0.00269378
0.00269408
0.00272358
0.00272278
0.00273789
0.00274056
0.00274253
0.00274519
0.00274786
0.00274925
0.00274909
0.00274823
0.00274756
0.0027476
0.00273545
0.00273436
0.00270639
0.00270481
0.00270493
0.00270525
0.00270554
0.00270578
0.00270594
0.00270605
0.00270611
0.00270612
0.0027061
0.00270606
0.00270599
0.00270592
0.00270584
0.00270575
0.00270568
0.0027056
0.00270553
0.00270547
0.00270541
0.00270538
0.00270535
0.00262989
0.00262988
0.00262987
0.00262985
0.00262982
0.00262978
0.00262974
0.00262967
0.00262957
0.00262946
0.00262931
0.00262912
0.00262889
0.00262862
0.0026283
0.00262791
0.00262746
0.00262693
0.00262635
0.00262572
0.00262512
0.00262463
0.00262544
0.0026527
0.00265281
0.00266708
0.00267372
0.00268053
0.00269128
0.00270223
0.00270544
0.00269947
0.00269037
0.00268329
0.00267915
0.00266771
0.00266458
0.00263879
0.00263667
0.0026364
0.0026365
0.00263664
0.00263674
0.0026368
0.00263683
0.00263682
0.00263677
0.0026367
0.00263662
0.00263652
0.00263641
0.00263631
0.0026362
0.00263611
0.00263602
0.00263594
0.00263586
0.0026358
0.00263577
0.00263574
0.0025634
0.00256339
0.00256338
0.00256337
0.00256334
0.00256332
0.00256328
0.00256322
0.00256314
0.00256304
0.00256292
0.00256275
0.00256256
0.00256232
0.00256203
0.00256169
0.0025613
0.00256085
0.00256036
0.00255987
0.00255949
0.0025593
0.0025609
0.0025865
0.00258834
0.00260408
0.00261918
0.00264383
0.00269294
0.0027523
0.00276256
0.0027167
0.00266664
0.00263586
0.00262019
0.00260553
0.00259963
0.0025749
0.00257226
0.00257148
0.00257126
0.00257118
0.00257112
0.00257107
0.002571
0.0025709
0.0025708
0.00257068
0.00257055
0.00257041
0.00257028
0.00257014
0.00257002
0.00256991
0.0025698
0.00256971
0.00256962
0.00256955
0.00256951
0.00256948
0.00250005
0.00250004
0.00250003
0.00250002
0.00250001
0.00249999
0.00249996
0.00249992
0.00249986
0.00249978
0.00249967
0.00249954
0.00249938
0.00249918
0.00249895
0.00249867
0.00249835
0.002498
0.00249766
0.00249737
0.00249728
0.00249761
0.0025005
0.00252508
0.00252974
0.00255052
0.0025847
0.00267465
0.00283663
0.0029886
0.00301221
0.00290129
0.00274306
0.00262197
0.00257542
0.00254928
0.00253951
0.00251451
0.00251126
0.00250987
0.00250925
0.00250892
0.00250867
0.00250848
0.00250831
0.00250813
0.00250796
0.00250779
0.00250761
0.00250744
0.00250727
0.00250711
0.00250696
0.00250683
0.00250671
0.0025066
0.00250651
0.00250643
0.00250639
0.00250635
0.00243962
0.00243961
0.00243961
0.0024396
0.00243959
0.00243959
0.00243957
0.00243954
0.0024395
0.00243944
0.00243937
0.00243926
0.00243914
0.00243899
0.00243881
0.00243861
0.00243839
0.00243818
0.002438
0.00243797
0.00243827
0.00243931
0.00244396
0.00246834
0.00247725
0.00250661
0.00257831
0.00279398
0.00316397
0.0040316
0.0039994
0.00336562
0.00293654
0.00267209
0.00254941
0.0024998
0.00248419
0.00245716
0.00245329
0.00245126
0.00245018
0.00244958
0.00244914
0.00244881
0.00244852
0.00244826
0.00244803
0.00244779
0.00244757
0.00244736
0.00244716
0.00244698
0.00244681
0.00244665
0.00244652
0.0024464
0.0024463
0.00244622
0.00244617
0.00244614
0.00238192
0.00238191
0.00238191
0.00238191
0.00238191
0.00238191
0.00238191
0.00238189
0.00238187
0.00238184
0.00238179
0.00238172
0.00238164
0.00238155
0.00238144
0.00238132
0.00238121
0.00238114
0.00238118
0.00238146
0.0023822
0.00238414
0.00239087
0.00241555
0.00242948
0.00246933
0.00258943
0.0029425
0.0044053
0.0050597
0.00322649
0.00279243
0.00254193
0.00245642
0.00243272
0.00240244
0.00239794
0.00239531
0.00239379
0.00239291
0.00239228
0.00239181
0.00239142
0.00239108
0.00239077
0.00239049
0.00239023
0.00238998
0.00238975
0.00238954
0.00238936
0.00238919
0.00238904
0.00238892
0.00238881
0.00238873
0.00238867
0.00238864
0.00232677
0.00232676
0.00232677
0.00232677
0.00232678
0.00232679
0.0023268
0.0023268
0.0023268
0.00232679
0.00232677
0.00232673
0.0023267
0.00232666
0.00232662
0.0023266
0.00232662
0.00232671
0.00232697
0.0023276
0.00232879
0.00233176
0.00234067
0.00236587
0.00238464
0.00243307
0.00258555
0.00301576
0.0044086
0.0425628
0.00629037
0.00348381
0.00292104
0.00254069
0.00241678
0.00238387
0.00235003
0.00234494
0.00234182
0.00233989
0.00233876
0.00233795
0.00233735
0.00233686
0.00233645
0.00233608
0.00233575
0.00233544
0.00233516
0.0023349
0.00233467
0.00233446
0.00233427
0.00233412
0.00233398
0.00233386
0.00233377
0.00233372
0.00233368
0.002274
0.002274
0.00227401
0.00227402
0.00227403
0.00227405
0.00227407
0.00227409
0.0022741
0.00227412
0.00227413
0.00227413
0.00227414
0.00227417
0.0022742
0.00227427
0.00227442
0.00227468
0.00227518
0.00227615
0.0022778
0.00228186
0.00229283
0.00231874
0.00234182
0.00239601
0.00256744
0.00300918
0.0268617
0.081603
0.390775
0.00847988
0.00374128
0.00301189
0.0025296
0.0023778
0.00233613
0.00229953
0.00229397
0.0022905
0.00228824
0.0022869
0.00228595
0.00228524
0.00228466
0.00228418
0.00228375
0.00228337
0.00228303
0.00228272
0.00228243
0.00228217
0.00228194
0.00228174
0.00228157
0.00228142
0.0022813
0.0022812
0.00228114
0.0022811
0.00222348
0.00222347
0.00222349
0.0022235
0.00222352
0.00222355
0.00222358
0.00222361
0.00222365
0.00222368
0.00222372
0.00222376
0.00222382
0.0022239
0.00222401
0.00222417
0.00222444
0.00222486
0.00222558
0.00222689
0.00222896
0.00223411
0.00224676
0.00227362
0.00230068
0.0023591
0.00255554
0.00309275
0.0752537
0.0860688
0.140595
0.008747
0.00412229
0.00304384
0.002501
0.00233716
0.00228847
0.00225072
0.0022448
0.00224111
0.00223865
0.00223715
0.00223609
0.00223529
0.00223465
0.0022341
0.00223363
0.00223321
0.00223283
0.00223249
0.00223218
0.0022319
0.00223165
0.00223143
0.00223125
0.00223109
0.00223095
0.00223085
0.00223079
0.00223075
0.00217505
0.00217505
0.00217506
0.00217508
0.00217511
0.00217514
0.00217519
0.00217523
0.00217528
0.00217534
0.0021754
0.00217548
0.00217558
0.0021757
0.00217588
0.00217613
0.00217649
0.00217704
0.00217797
0.00217961
0.00218215
0.00218825
0.00220212
0.0022301
0.00226085
0.00232228
0.00256179
0.00322754
0.0461675
0.17572
0.0864351
0.0081432
0.00448753
0.00303645
0.00245668
0.00229302
0.00224056
0.00220338
0.0021973
0.0021935
0.00219096
0.00218937
0.00218823
0.00218737
0.00218667
0.00218608
0.00218557
0.00218512
0.00218471
0.00218434
0.00218401
0.00218371
0.00218344
0.00218321
0.00218301
0.00218284
0.0021827
0.0021826
0.00218253
0.00218249
0.00212859
0.00212859
0.00212861
0.00212863
0.00212866
0.00212871
0.00212876
0.00212881
0.00212888
0.00212895
0.00212905
0.00212915
0.00212928
0.00212945
0.00212967
0.00212995
0.0021304
0.00213113
0.00213228
0.00213424
0.00213724
0.00214405
0.00215862
0.0021875
0.0022218
0.00228649
0.00257955
0.00331391
0.0311953
0.0968996
0.206654
0.0386589
0.00495394
0.00302648
0.00241107
0.00224647
0.00219304
0.00215748
0.00215145
0.00214758
0.00214503
0.00214339
0.00214223
0.00214134
0.00214061
0.00213999
0.00213945
0.00213897
0.00213853
0.00213814
0.00213779
0.00213747
0.00213719
0.00213695
0.00213674
0.00213656
0.00213641
0.0021363
0.00213623
0.00213619
0.00208399
0.00208399
0.00208401
0.00208404
0.00208407
0.00208412
0.00208418
0.00208425
0.00208432
0.00208442
0.00208452
0.00208465
0.0020848
0.00208496
0.00208522
0.0020856
0.00208619
0.00208706
0.00208841
0.0020906
0.00209402
0.00210126
0.00211617
0.00214565
0.0021837
0.00225837
0.00259073
0.00330863
0.0216522
0.07263
0.0885941
0.151326
0.00665703
0.00304102
0.00236922
0.00220303
0.00214692
0.00211288
0.00210713
0.00210324
0.00210075
0.00209911
0.00209795
0.00209708
0.00209635
0.00209571
0.00209515
0.00209464
0.00209419
0.00209378
0.00209341
0.00209308
0.00209278
0.00209253
0.00209231
0.00209212
0.00209197
0.00209185
0.00209178
0.00209173
0.00204113
0.00204114
0.00204116
0.00204119
0.00204123
0.00204128
0.00204135
0.00204142
0.00204151
0.00204161
0.00204172
0.00204185
0.00204201
0.00204221
0.00204254
0.002043
0.00204368
0.00204467
0.00204617
0.00204853
0.00205234
0.00205976
0.00207482
0.00210478
0.00214681
0.00224682
0.00257845
0.00325815
0.0123173
0.0568894
0.0605001
0.141501
0.0130506
0.0030647
0.00233116
0.00216781
0.00210287
0.00206993
0.00206439
0.0020605
0.00205812
0.00205653
0.00205537
0.00205449
0.00205377
0.00205313
0.00205256
0.00205204
0.00205157
0.00205115
0.00205076
0.00205042
0.00205011
0.00204984
0.00204962
0.00204942
0.00204926
0.00204914
0.00204907
0.00204902
0.00199992
0.00199993
0.00199995
0.00199998
0.00200002
0.00200008
0.00200015
0.00200023
0.00200032
0.00200042
0.00200052
0.00200065
0.00200084
0.00200111
0.00200148
0.002002
0.00200274
0.00200382
0.00200547
0.00200792
0.00201207
0.00201951
0.00203488
0.0020651
0.00211035
0.00224873
0.00253947
0.00323705
0.00704282
0.0247805
0.0637327
0.0976696
0.0171713
0.00305835
0.00229107
0.00213994
0.00206074
0.00202863
0.00202324
0.00201942
0.00201706
0.00201552
0.00201441
0.00201351
0.00201277
0.00201213
0.00201158
0.00201106
0.00201058
0.00201014
0.00200975
0.00200939
0.00200907
0.0020088
0.00200856
0.00200836
0.0020082
0.00200807
0.00200799
0.00200794
0.00196027
0.00196028
0.0019603
0.00196033
0.00196037
0.00196043
0.0019605
0.00196058
0.00196067
0.00196075
0.00196086
0.00196102
0.00196124
0.00196153
0.00196193
0.00196248
0.00196328
0.00196442
0.00196617
0.00196867
0.00197311
0.00198056
0.00199644
0.00202692
0.00207352
0.00224734
0.00248136
0.0032321
0.00631474
0.0326561
0.0408255
0.0584359
0.0174318
0.00301561
0.00224931
0.00211314
0.00202046
0.00198903
0.00198357
0.00197988
0.00197757
0.00197601
0.00197495
0.00197408
0.00197333
0.00197268
0.00197211
0.00197161
0.00197113
0.00197068
0.00197027
0.0019699
0.00196958
0.00196929
0.00196905
0.00196884
0.00196868
0.00196855
0.00196847
0.00196842
0.00192209
0.0019221
0.00192212
0.00192215
0.00192219
0.00192225
0.00192232
0.00192239
0.00192246
0.00192255
0.00192268
0.00192285
0.00192308
0.00192339
0.0019238
0.00192438
0.00192521
0.00192638
0.00192822
0.00193073
0.00193543
0.00194289
0.00195962
0.00199047
0.00203613
0.00222656
0.00241392
0.00317947
0.00905802
0.0399964
0.0720688
0.0507318
0.0166768
0.0029629
0.00220908
0.00208292
0.00198188
0.00195119
0.00194534
0.00194179
0.00193954
0.001938
0.00193691
0.00193607
0.00193534
0.00193468
0.0019341
0.00193359
0.00193311
0.00193267
0.00193225
0.00193188
0.00193154
0.00193125
0.001931
0.00193079
0.00193062
0.00193048
0.0019304
0.00193035
0.0018853
0.0018853
0.00188533
0.00188536
0.0018854
0.00188545
0.0018855
0.00188556
0.00188564
0.00188575
0.00188588
0.00188606
0.00188629
0.0018866
0.00188702
0.00188761
0.00188846
0.00188965
0.00189153
0.00189407
0.00189897
0.00190644
0.00192453
0.00195598
0.00199862
0.0021856
0.00234398
0.00305775
0.00790404
0.0438774
0.103673
0.0579669
0.0158393
0.0029166
0.00217171
0.00204887
0.00194498
0.00191512
0.00190852
0.00190509
0.00190289
0.0019014
0.0019003
0.00189943
0.00189868
0.00189802
0.00189746
0.00189694
0.00189646
0.00189602
0.00189561
0.00189523
0.00189489
0.00189459
0.00189433
0.00189411
0.00189394
0.0018938
0.00189372