/*--------------------------------*- C++ -*----------------------------------*\
  =========                 |
  \\      /  F ield         | OpenFOAM: The Open Source CFD Toolbox
   \\    /   O peration     | Website:  https://openfoam.org
    \\  /    A nd           | Version:  12
     \\/     M anipulation  |
\*---------------------------------------------------------------------------*/
FoamFile
{
    format      ascii;
    class       volScalarField;
    location    "120";
    object      nut;
}
// * * * * * * * * * * * * * * * * * * * * * * * * * * * * * * * * * * * * * //

dimensions      [0 2 -1 0 0 0 0];

internalField   nonuniform List<scalar> 
16227
(
0.000978543
0.000978543
0.000978543
0.000978543
0.000978543
0.000978543
0.000978543
0.000978543
0.000978543
0.000978543
0.000978543
0.000978543
0.000978544
0.000978544
0.000978544
0.000978544
0.000978544
0.000978544
0.000978544
0.000978544
0.000978544
0.000978544
0.000978544
0.000978544
0.000978544
0.000978544
0.000978544
0.000978544
0.000978544
0.000978544
0.000978544
0.000978544
0.000978544
0.000978544
0.000978544
0.000978544
0.000978544
0.000978544
0.000978544
0.000978544
0.000978544
0.000978544
0.000978544
0.000978544
0.000978544
0.000978544
0.000978544
0.000978544
0.000978544
0.000978544
0.000978544
0.000978543
0.000978543
0.000978543
0.000978543
0.000978543
0.000978543
0.000978543
0.000978543
0.000978543
0.000972834
0.000972834
0.000972834
0.000972834
0.000972834
0.000972834
0.000972834
0.000972834
0.000972834
0.000972834
0.000972835
0.000972835
0.000972836
0.000972836
0.000972836
0.000972836
0.000972836
0.000972836
0.000972836
0.000972836
0.000972837
0.000972837
0.000972837
0.000972837
0.000972837
0.000972837
0.000972837
0.000972837
0.000972837
0.000972836
0.000972837
0.000972837
0.000972837
0.000972837
0.000972837
0.000972837
0.000972837
0.000972837
0.000972837
0.000972837
0.000972837
0.000972837
0.000972837
0.000972837
0.000972837
0.000972836
0.000972836
0.000972836
0.000972836
0.000972836
0.000972836
0.000972836
0.000972835
0.000972835
0.000972834
0.000972834
0.000972835
0.000972834
0.000972834
0.000972834
0.000967494
0.000967494
0.000967494
0.000967494
0.000967494
0.000967495
0.000967494
0.000967494
0.000967494
0.000967494
0.000967495
0.000967495
0.000967497
0.000967498
0.000967498
0.000967498
0.000967498
0.000967498
0.000967498
0.000967497
0.000967498
0.000967498
0.000967498
0.000967498
0.000967498
0.000967498
0.000967498
0.000967498
0.000967498
0.000967497
0.000967498
0.000967498
0.000967498
0.000967498
0.000967498
0.000967498
0.000967498
0.000967498
0.000967498
0.000967498
0.000967498
0.000967498
0.000967498
0.000967498
0.000967498
0.000967498
0.000967498
0.000967498
0.000967498
0.000967498
0.000967497
0.000967496
0.000967495
0.000967495
0.000967495
0.000967495
0.000967495
0.000967494
0.000967494
0.000967494
0.000962481
0.000962481
0.000962481
0.000962481
0.000962481
0.000962481
0.000962481
0.000962481
0.000962481
0.000962481
0.000962481
0.000962482
0.000962484
0.000962485
0.000962485
0.000962485
0.000962485
0.000962486
0.000962485
0.000962484
0.000962485
0.000962485
0.000962485
0.000962485
0.000962486
0.000962486
0.000962486
0.000962486
0.000962486
0.000962485
0.000962486
0.000962486
0.000962486
0.000962486
0.000962486
0.000962487
0.000962487
0.000962487
0.000962487
0.000962487
0.000962487
0.000962487
0.000962487
0.000962487
0.000962487
0.000962487
0.000962487
0.000962487
0.000962487
0.000962486
0.000962485
0.000962483
0.000962483
0.000962483
0.000962483
0.000962483
0.000962482
0.000962482
0.000962482
0.000962482
0.000957758
0.000957759
0.000957759
0.000957759
0.000957759
0.000957759
0.00095776
0.000957759
0.000957759
0.000957759
0.000957759
0.00095776
0.000957762
0.000957763
0.000957764
0.000957764
0.000957764
0.000957763
0.000957761
0.000957761
0.000957763
0.000957763
0.000957764
0.000957764
0.000957764
0.000957764
0.000957764
0.000957764
0.000957764
0.000957763
0.000957764
0.000957765
0.000957765
0.000957765
0.000957766
0.000957766
0.000957766
0.000957766
0.000957767
0.000957767
0.000957767
0.000957767
0.000957767
0.000957767
0.000957767
0.000957767
0.000957767
0.000957767
0.000957767
0.000957766
0.000957764
0.000957763
0.000957762
0.000957762
0.000957762
0.000957763
0.000957762
0.000957761
0.000957761
0.000957761
0.000953297
0.000953298
0.000953298
0.000953298
0.000953298
0.000953298
0.000953298
0.000953298
0.000953298
0.000953297
0.000953297
0.000953298
0.000953299
0.000953302
0.000953303
0.000953303
0.000953303
0.000953302
0.000953299
0.000953299
0.000953301
0.000953302
0.000953302
0.000953302
0.000953302
0.000953303
0.000953303
0.000953303
0.000953303
0.000953302
0.000953304
0.000953304
0.000953305
0.000953305
0.000953306
0.000953306
0.000953307
0.000953307
0.000953308
0.000953308
0.000953308
0.000953309
0.000953309
0.000953309
0.000953309
0.000953309
0.000953309
0.000953309
0.000953309
0.000953308
0.000953305
0.000953304
0.000953304
0.000953304
0.000953304
0.000953304
0.000953304
0.000953303
0.000953303
0.000953303
0.000949072
0.000949072
0.000949072
0.000949072
0.000949072
0.000949072
0.000949072
0.000949072
0.000949072
0.000949071
0.000949071
0.000949071
0.000949072
0.000949075
0.000949077
0.000949077
0.000949077
0.000949073
0.000949072
0.000949072
0.000949075
0.000949076
0.000949076
0.000949076
0.000949076
0.000949076
0.000949076
0.000949077
0.000949077
0.000949076
0.000949078
0.000949079
0.00094908
0.000949081
0.000949081
0.000949082
0.000949083
0.000949084
0.000949084
0.000949085
0.000949086
0.000949086
0.000949087
0.000949087
0.000949087
0.000949087
0.000949087
0.000949088
0.000949087
0.000949084
0.000949082
0.000949081
0.000949081
0.000949082
0.000949082
0.000949082
0.000949082
0.000949081
0.000949081
0.000949081
0.000945059
0.000945059
0.000945059
0.000945059
0.000945059
0.000945059
0.000945059
0.000945059
0.000945059
0.000945058
0.000945058
0.000945057
0.000945057
0.000945059
0.000945062
0.000945063
0.000945063
0.000945059
0.000945057
0.000945058
0.000945061
0.000945062
0.000945062
0.000945062
0.000945062
0.000945062
0.000945063
0.000945063
0.000945063
0.000945063
0.000945065
0.000945066
0.000945068
0.000945069
0.00094507
0.000945071
0.000945072
0.000945073
0.000945075
0.000945076
0.000945077
0.000945077
0.000945078
0.000945079
0.000945079
0.000945079
0.00094508
0.00094508
0.000945078
0.000945075
0.000945074
0.000945073
0.000945074
0.000945074
0.000945074
0.000945074
0.000945074
0.000945073
0.000945073
0.000945073
0.00094124
0.00094124
0.00094124
0.00094124
0.00094124
0.00094124
0.00094124
0.00094124
0.000941239
0.000941239
0.000941238
0.000941237
0.000941237
0.000941238
0.000941242
0.000941243
0.000941241
0.000941237
0.000941236
0.000941237
0.00094124
0.00094124
0.00094124
0.00094124
0.000941241
0.000941241
0.000941242
0.000941242
0.000941243
0.000941243
0.000941245
0.000941247
0.000941249
0.000941251
0.000941252
0.000941254
0.000941256
0.000941257
0.000941259
0.00094126
0.000941262
0.000941263
0.000941264
0.000941265
0.000941265
0.000941266
0.000941266
0.000941266
0.000941262
0.000941261
0.00094126
0.00094126
0.000941261
0.000941261
0.000941261
0.000941261
0.000941261
0.00094126
0.00094126
0.00094126
0.000937598
0.000937598
0.000937598
0.000937597
0.000937597
0.000937597
0.000937597
0.000937597
0.000937596
0.000937596
0.000937595
0.000937593
0.000937593
0.000937594
0.000937598
0.000937599
0.000937595
0.000937592
0.000937591
0.000937592
0.000937595
0.000937596
0.000937595
0.000937596
0.000937596
0.000937596
0.000937597
0.000937598
0.000937599
0.000937599
0.000937602
0.000937605
0.000937607
0.000937609
0.000937611
0.000937614
0.000937616
0.000937618
0.000937621
0.000937622
0.000937624
0.000937626
0.000937627
0.000937629
0.00093763
0.000937631
0.000937631
0.00093763
0.000937626
0.000937625
0.000937625
0.000937625
0.000937626
0.000937626
0.000937626
0.000937626
0.000937625
0.000937625
0.000937625
0.000937625
0.000934118
0.000934117
0.000934117
0.000934117
0.000934117
0.000934117
0.000934117
0.000934116
0.000934115
0.000934115
0.000934114
0.000934112
0.000934111
0.000934111
0.000934112
0.000934115
0.000934111
0.000934109
0.000934108
0.000934108
0.000934111
0.000934112
0.000934112
0.000934112
0.000934112
0.000934113
0.000934114
0.000934115
0.000934116
0.000934117
0.000934121
0.000934124
0.000934127
0.000934129
0.000934133
0.000934136
0.000934139
0.000934142
0.000934145
0.000934147
0.00093415
0.000934152
0.000934154
0.000934156
0.000934157
0.000934158
0.000934158
0.000934156
0.000934154
0.000934153
0.000934153
0.000934153
0.000934154
0.000934154
0.000934154
0.000934154
0.000934154
0.000934153
0.000934153
0.000934153
0.000930786
0.000930786
0.000930786
0.000930786
0.000930785
0.000930785
0.000930785
0.000930784
0.000930783
0.000930782
0.000930781
0.000930779
0.000930777
0.000930777
0.000930778
0.00093078
0.000930777
0.000930775
0.000930773
0.000930773
0.000930773
0.000930776
0.000930777
0.000930777
0.000930777
0.000930778
0.000930779
0.000930781
0.000930782
0.000930783
0.000930788
0.000930791
0.000930795
0.000930799
0.000930803
0.000930807
0.000930811
0.000930815
0.000930818
0.000930822
0.000930825
0.000930828
0.00093083
0.000930832
0.000930834
0.000930835
0.000930833
0.000930833
0.000930832
0.000930831
0.000930831
0.000930831
0.000930832
0.000930832
0.000930833
0.000930833
0.000930832
0.000930832
0.000930832
0.000930832
0.000927593
0.000927593
0.000927592
0.000927592
0.000927591
0.000927591
0.00092759
0.00092759
0.000927589
0.000927587
0.000927586
0.000927584
0.000927582
0.00092758
0.000927579
0.000927579
0.000927578
0.000927577
0.000927575
0.000927574
0.000927574
0.000927577
0.000927578
0.000927578
0.000927578
0.000927579
0.000927581
0.000927583
0.000927585
0.000927587
0.000927592
0.000927596
0.000927601
0.000927606
0.000927611
0.000927616
0.000927621
0.000927625
0.00092763
0.000927634
0.000927638
0.000927642
0.000927645
0.000927648
0.00092765
0.00092765
0.000927649
0.000927649
0.000927648
0.000927648
0.000927648
0.000927648
0.000927649
0.000927649
0.00092765
0.00092765
0.000927649
0.000927649
0.000927649
0.000927649
0.000924526
0.000924526
0.000924526
0.000924525
0.000924525
0.000924524
0.000924523
0.000924522
0.000924521
0.000924519
0.000924517
0.000924515
0.000924513
0.000924511
0.000924509
0.000924508
0.000924508
0.000924506
0.000924504
0.000924503
0.000924502
0.000924505
0.000924506
0.000924506
0.000924506
0.000924507
0.000924509
0.000924511
0.000924514
0.000924516
0.000924522
0.000924528
0.000924534
0.00092454
0.000924546
0.000924552
0.000924558
0.000924564
0.00092457
0.000924575
0.00092458
0.000924584
0.000924588
0.000924591
0.000924592
0.000924593
0.000924593
0.000924593
0.000924593
0.000924593
0.000924593
0.000924594
0.000924595
0.000924595
0.000924595
0.000924595
0.000924595
0.000924595
0.000924595
0.000924594
0.000921578
0.000921577
0.000921577
0.000921576
0.000921576
0.000921575
0.000921574
0.000921573
0.000921571
0.000921569
0.000921567
0.000921564
0.000921562
0.000921559
0.000921557
0.000921555
0.000921555
0.000921553
0.00092155
0.000921549
0.000921547
0.00092155
0.000921551
0.000921551
0.000921551
0.000921552
0.000921554
0.000921557
0.00092156
0.000921564
0.000921571
0.000921577
0.000921584
0.000921591
0.000921599
0.000921607
0.000921614
0.000921621
0.000921628
0.000921635
0.00092164
0.000921646
0.00092165
0.000921653
0.000921653
0.000921655
0.000921656
0.000921657
0.000921657
0.000921657
0.000921658
0.000921658
0.000921659
0.000921659
0.00092166
0.00092166
0.000921659
0.000921659
0.000921659
0.000921659
0.000918739
0.000918738
0.000918738
0.000918737
0.000918736
0.000918735
0.000918734
0.000918733
0.000918731
0.000918729
0.000918726
0.000918723
0.00091872
0.000918717
0.000918714
0.000918712
0.000918711
0.000918709
0.000918706
0.000918703
0.000918702
0.000918704
0.000918705
0.000918704
0.000918705
0.000918706
0.000918709
0.000918712
0.000918716
0.00091872
0.000918728
0.000918736
0.000918745
0.000918753
0.000918762
0.000918771
0.00091878
0.000918789
0.000918797
0.000918805
0.000918812
0.000918818
0.000918823
0.000918826
0.000918827
0.000918829
0.00091883
0.000918831
0.000918831
0.000918832
0.000918833
0.000918834
0.000918834
0.000918835
0.000918835
0.000918835
0.000918835
0.000918834
0.000918834
0.000918834
0.000916002
0.000916002
0.000916001
0.000916
0.000915999
0.000915998
0.000915997
0.000915995
0.000915993
0.000915991
0.000915988
0.000915984
0.000915981
0.000915977
0.000915974
0.000915971
0.00091597
0.000915967
0.000915963
0.00091596
0.000915958
0.000915957
0.000915959
0.00091596
0.000915961
0.000915962
0.000915965
0.000915969
0.000915974
0.000915979
0.000915988
0.000915998
0.000916008
0.000916018
0.000916029
0.000916039
0.00091605
0.00091606
0.00091607
0.000916079
0.000916087
0.000916093
0.000916098
0.000916101
0.000916103
0.000916106
0.000916109
0.000916109
0.00091611
0.000916111
0.000916112
0.000916113
0.000916113
0.000916114
0.000916114
0.000916114
0.000916113
0.000916113
0.000916113
0.000916113
0.000913361
0.000913361
0.00091336
0.000913359
0.000913358
0.000913357
0.000913355
0.000913353
0.000913351
0.000913348
0.000913345
0.000913341
0.000913337
0.000913333
0.000913329
0.000913326
0.000913324
0.00091332
0.000913316
0.000913312
0.000913309
0.000913307
0.00091331
0.000913311
0.000913311
0.000913313
0.000913317
0.000913321
0.000913327
0.000913334
0.000913344
0.000913356
0.000913367
0.000913379
0.000913392
0.000913404
0.000913417
0.000913429
0.00091344
0.00091345
0.000913459
0.000913466
0.000913469
0.000913473
0.000913478
0.000913481
0.000913484
0.000913484
0.000913485
0.000913487
0.000913488
0.000913488
0.000913489
0.000913489
0.000913489
0.000913489
0.000913489
0.000913489
0.000913488
0.000913488
0.00091081
0.000910809
0.000910809
0.000910808
0.000910806
0.000910805
0.000910803
0.000910801
0.000910798
0.000910795
0.000910791
0.000910787
0.000910782
0.000910778
0.000910773
0.000910769
0.000910767
0.000910762
0.000910758
0.000910753
0.00091075
0.000910747
0.000910749
0.000910751
0.000910752
0.000910754
0.000910758
0.000910764
0.000910771
0.000910779
0.000910791
0.000910804
0.000910818
0.000910832
0.000910847
0.000910861
0.000910875
0.000910889
0.000910901
0.000910912
0.000910922
0.000910929
0.000910933
0.000910938
0.000910943
0.000910947
0.000910949
0.00091095
0.000910952
0.000910953
0.000910954
0.000910955
0.000910955
0.000910955
0.000910955
0.000910955
0.000910955
0.000910954
0.000910954
0.000910954
0.000908342
0.000908342
0.000908341
0.00090834
0.000908338
0.000908337
0.000908335
0.000908332
0.000908329
0.000908326
0.000908322
0.000908317
0.000908312
0.000908307
0.000908302
0.000908297
0.000908293
0.000908289
0.000908284
0.000908279
0.000908274
0.000908271
0.000908271
0.000908274
0.000908277
0.00090828
0.000908285
0.000908292
0.000908301
0.000908311
0.000908325
0.000908341
0.000908356
0.000908372
0.000908389
0.000908405
0.000908421
0.000908435
0.000908448
0.00090846
0.000908469
0.000908477
0.000908483
0.00090849
0.000908495
0.000908498
0.0009085
0.000908502
0.000908504
0.000908505
0.000908506
0.000908506
0.000908507
0.000908506
0.000908506
0.000908506
0.000908505
0.000908505
0.000908505
0.000908504
0.000905954
0.000905953
0.000905953
0.000905951
0.00090595
0.000905948
0.000905946
0.000905943
0.00090594
0.000905936
0.000905931
0.000905926
0.000905921
0.000905915
0.000905909
0.000905903
0.000905899
0.000905894
0.000905889
0.000905884
0.000905879
0.000905875
0.000905874
0.000905879
0.000905883
0.000905887
0.000905894
0.000905903
0.000905915
0.000905927
0.000905944
0.000905961
0.000905979
0.000905997
0.000906015
0.000906033
0.00090605
0.000906065
0.000906078
0.00090609
0.000906099
0.000906108
0.000906115
0.000906122
0.000906127
0.00090613
0.000906132
0.000906134
0.000906136
0.000906137
0.000906137
0.000906138
0.000906138
0.000906137
0.000906137
0.000906137
0.000906136
0.000906135
0.000906135
0.000906134
0.00090364
0.000903639
0.000903639
0.000903637
0.000903636
0.000903633
0.000903631
0.000903628
0.000903625
0.00090362
0.000903616
0.00090361
0.000903604
0.000903598
0.000903591
0.000903585
0.00090358
0.000903575
0.000903569
0.000903564
0.000903559
0.000903556
0.000903556
0.000903561
0.000903567
0.000903574
0.000903584
0.000903596
0.000903611
0.000903627
0.000903647
0.000903667
0.000903687
0.000903706
0.000903726
0.000903744
0.00090376
0.000903774
0.000903788
0.0009038
0.000903808
0.000903817
0.000903825
0.000903832
0.000903836
0.000903839
0.00090384
0.000903842
0.000903844
0.000903845
0.000903845
0.000903845
0.000903844
0.000903844
0.000903843
0.000903842
0.000903841
0.000903841
0.00090384
0.00090384
0.000901396
0.000901395
0.000901395
0.000901393
0.000901391
0.000901389
0.000901387
0.000901384
0.00090138
0.000901375
0.00090137
0.000901365
0.000901358
0.000901352
0.000901345
0.000901338
0.000901332
0.000901327
0.000901321
0.000901316
0.000901312
0.00090131
0.000901311
0.000901317
0.000901333
0.000901344
0.000901359
0.000901378
0.000901399
0.000901419
0.000901443
0.000901466
0.000901487
0.000901507
0.000901526
0.000901544
0.000901551
0.000901562
0.000901573
0.000901583
0.000901593
0.000901601
0.000901609
0.000901614
0.000901617
0.000901619
0.000901621
0.000901623
0.000901623
0.000901624
0.000901623
0.000901623
0.000901622
0.000901621
0.00090162
0.000901619
0.000901618
0.000901617
0.000901616
0.000901616
0.000899219
0.000899218
0.000899217
0.000899216
0.000899214
0.000899212
0.000899209
0.000899206
0.000899202
0.000899197
0.000899192
0.000899186
0.000899179
0.000899172
0.000899165
0.000899157
0.000899151
0.000899145
0.000899141
0.000899137
0.000899134
0.000899135
0.000899141
0.000899163
0.000900209
0.000900228
0.000900247
0.000900271
0.000900297
0.000900322
0.000900348
0.000900372
0.000900392
0.000900411
0.000900428
0.000900444
0.000899444
0.000899429
0.000899435
0.000899443
0.00089945
0.000899457
0.000899462
0.000899465
0.000899467
0.000899469
0.00089947
0.000899471
0.000899471
0.00089947
0.000899469
0.000899468
0.000899467
0.000899465
0.000899464
0.000899463
0.000899461
0.00089946
0.000899459
0.000899459
0.000897104
0.000897103
0.000897102
0.000897101
0.000897099
0.000897097
0.000897094
0.000897091
0.000897086
0.000897082
0.000897076
0.00089707
0.000897063
0.000897056
0.000897049
0.000897042
0.000897034
0.000897029
0.000897025
0.000897024
0.000897025
0.000897032
0.000897053
0.000898077
0.000898038
0.000898073
0.000898107
0.000898147
0.000898187
0.000898223
0.000898254
0.000898277
0.000898293
0.000898304
0.000898315
0.000898319
0.000898385
0.000897392
0.000897375
0.000897376
0.000897378
0.000897381
0.000897383
0.000897383
0.000897383
0.000897384
0.000897384
0.000897383
0.000897382
0.000897381
0.000897379
0.000897377
0.000897375
0.000897373
0.000897371
0.000897369
0.000897368
0.000897366
0.000897366
0.000897365
0.000895049
0.000895048
0.000895047
0.000895046
0.000895044
0.000895041
0.000895039
0.000895035
0.000895031
0.000895026
0.000895021
0.000895015
0.000895008
0.000895001
0.000894994
0.000894987
0.00089498
0.000894976
0.000894974
0.000894977
0.000894984
0.000895001
0.000895038
0.000895979
0.000895966
0.000896509
0.000896571
0.000896637
0.000896699
0.000896748
0.000896781
0.000896796
0.000896798
0.000896796
0.000896795
0.000896313
0.00089634
0.000895436
0.000895392
0.00089538
0.000895374
0.000895371
0.000895367
0.000895364
0.000895363
0.000895361
0.000895359
0.000895357
0.000895355
0.000895352
0.000895349
0.000895346
0.000895343
0.000895341
0.000895338
0.000895336
0.000895334
0.000895332
0.000895331
0.00089533
0.00089305
0.000893049
0.000893048
0.000893047
0.000893045
0.000893043
0.00089304
0.000893036
0.000893032
0.000893028
0.000893022
0.000893016
0.00089301
0.000893003
0.000892997
0.000892991
0.000892986
0.000892983
0.000892984
0.000892993
0.000893011
0.000893045
0.000893102
0.00089397
0.000894023
0.000894503
0.00089466
0.000894794
0.00089491
0.000894986
0.000895008
0.000894984
0.000894935
0.000894884
0.000894845
0.00089444
0.000894393
0.000893569
0.000893489
0.000893456
0.000893437
0.000893424
0.000893414
0.000893407
0.000893402
0.000893397
0.000893393
0.000893389
0.000893384
0.00089338
0.000893376
0.000893372
0.000893369
0.000893365
0.000893362
0.000893359
0.000893357
0.000893355
0.000893354
0.000893353
0.000891105
0.000891104
0.000891103
0.000891102
0.0008911
0.000891098
0.000891095
0.000891092
0.000891088
0.000891083
0.000891078
0.000891072
0.000891066
0.000891061
0.000891055
0.00089105
0.000891048
0.000891049
0.000891055
0.000891072
0.000891107
0.000891166
0.000891254
0.000892072
0.000892225
0.000892625
0.000892996
0.000893282
0.000893548
0.000893726
0.000893752
0.000893637
0.000893444
0.000893246
0.000893086
0.000892746
0.00089256
0.000891796
0.000891668
0.000891603
0.000891565
0.000891539
0.000891521
0.000891508
0.000891498
0.00089149
0.000891482
0.000891475
0.000891469
0.000891463
0.000891458
0.000891452
0.000891448
0.000891443
0.00089144
0.000891436
0.000891434
0.000891431
0.00089143
0.000891429
0.000889211
0.00088921
0.000889209
0.000889208
0.000889206
0.000889204
0.000889201
0.000889198
0.000889194
0.00088919
0.000889185
0.00088918
0.000889175
0.00088917
0.000889166
0.000889164
0.000889165
0.000889171
0.000889186
0.000889217
0.000889274
0.000889368
0.000889507
0.000890316
0.000890614
0.00089099
0.000891782
0.000892456
0.000893196
0.000893767
0.000893861
0.000893453
0.000892789
0.000892139
0.000891634
0.0008913
0.000890867
0.000890121
0.000889934
0.000889822
0.000889757
0.000889715
0.000889686
0.000889665
0.000889648
0.000889635
0.000889624
0.000889614
0.000889606
0.000889598
0.000889591
0.000889584
0.000889578
0.000889573
0.000889569
0.000889565
0.000889561
0.000889559
0.000889557
0.000889556
0.000887365
0.000887364
0.000887363
0.000887362
0.00088736
0.000887358
0.000887356
0.000887353
0.000887349
0.000887346
0.000887341
0.000887337
0.000887333
0.00088733
0.000887328
0.000887329
0.000887335
0.000887349
0.000887376
0.000887426
0.000887517
0.000887658
0.000887885
0.000888744
0.000889262
0.000889792
0.000891467
0.000893272
0.000895732
0.000897991
0.00089839
0.000896695
0.000894251
0.000892174
0.000890758
0.000890164
0.000889361
0.000888547
0.000888289
0.000888114
0.000888013
0.00088795
0.000887906
0.000887874
0.00088785
0.000887831
0.000887816
0.000887803
0.000887792
0.000887782
0.000887772
0.000887764
0.000887757
0.000887751
0.000887746
0.000887741
0.000887737
0.000887734
0.000887733
0.000887731
0.000885566
0.000885565
0.000885564
0.000885563
0.000885561
0.000885559
0.000885557
0.000885554
0.000885551
0.000885548
0.000885544
0.000885541
0.000885538
0.000885537
0.000885538
0.000885544
0.000885556
0.00088558
0.000885622
0.000885698
0.000885835
0.000886044
0.000886418
0.000887408
0.000888285
0.000889388
0.00089294
0.000898492
0.000908688
0.000920412
0.000922079
0.000912466
0.000901756
0.000894822
0.000891014
0.000889427
0.000888107
0.000887068
0.000886732
0.000886477
0.000886329
0.000886239
0.000886176
0.000886132
0.0008861
0.000886075
0.000886055
0.000886038
0.000886024
0.000886012
0.000886001
0.000885991
0.000885983
0.000885976
0.000885969
0.000885964
0.00088596
0.000885956
0.000885954
0.000885952
0.00088381
0.000883809
0.000883808
0.000883807
0.000883806
0.000883804
0.000883802
0.0008838
0.000883797
0.000883795
0.000883792
0.00088379
0.000883789
0.00088379
0.000883795
0.000883805
0.000883825
0.000883861
0.000883924
0.000884033
0.000884227
0.000884533
0.00088514
0.000886354
0.000887823
0.000890184
0.000897781
0.000916374
0.00044279
0.000272847
0.000280134
0.000445857
0.000927908
0.000903445
0.000893351
0.000889239
0.000887167
0.000885676
0.00088525
0.000884906
0.0008847
0.000884578
0.000884494
0.000884437
0.000884396
0.000884364
0.000884339
0.000884318
0.000884301
0.000884286
0.000884273
0.000884262
0.000884252
0.000884244
0.000884237
0.000884231
0.000884226
0.000884222
0.000884219
0.000884217
0.000882097
0.000882096
0.000882095
0.000882094
0.000882093
0.000882091
0.000882089
0.000882088
0.000882086
0.000882084
0.000882082
0.000882082
0.000882083
0.000882087
0.000882095
0.000882112
0.000882141
0.000882192
0.000882278
0.000882428
0.000882688
0.000883125
0.000884059
0.000885588
0.00088792
0.000892322
0.000907703
0.000576551
0.000201904
9.39548e-05
0.00010654
0.000181354
0.000463072
0.000924043
0.00089884
0.000889784
0.000886556
0.000884347
0.000883826
0.000883389
0.000883118
0.000882961
0.000882856
0.000882785
0.000882733
0.000882695
0.000882665
0.00088264
0.00088262
0.000882602
0.000882587
0.000882574
0.000882563
0.000882554
0.000882546
0.000882539
0.000882533
0.000882529
0.000882527
0.000882524
0.000880423
0.000880422
0.000880422
0.000880421
0.00088042
0.000880418
0.000880417
0.000880416
0.000880414
0.000880413
0.000880413
0.000880414
0.000880417
0.000880424
0.000880438
0.000880461
0.000880501
0.000880569
0.000880682
0.000880879
0.00088121
0.000881814
0.00088315
0.000885043
0.000888399
0.000895222
0.000920413
0.000642627
0.000183109
0.000125671
0.000353156
0.000955901
0.000907543
0.000891046
0.000886189
0.000883053
0.000882434
0.000881911
0.000881574
0.000881383
0.000881256
0.000881171
0.00088111
0.000881065
0.000881029
0.000881001
0.000880978
0.000880958
0.000880941
0.000880926
0.000880914
0.000880903
0.000880894
0.000880887
0.000880881
0.000880876
0.000880873
0.000880871
0.000878788
0.000878787
0.000878787
0.000878786
0.000878785
0.000878784
0.000878783
0.000878782
0.000878781
0.000878781
0.000878782
0.000878784
0.00087879
0.000878801
0.000878819
0.000878851
0.000878903
0.000878989
0.000879131
0.00087938
0.000879787
0.000880586
0.000882357
0.000884623
0.000888984
0.000897836
0.000929306
0.000896717
0.00014171
0.000100524
0.000193936
0.000458033
0.000987684
0.000917235
0.000892648
0.000885881
0.00088177
0.000881052
0.000880458
0.000880062
0.000879839
0.000879692
0.000879594
0.000879524
0.000879473
0.000879433
0.000879401
0.000879374
0.000879352
0.000879333
0.000879317
0.000879303
0.000879291
0.000879281
0.000879273
0.000879266
0.000879261
0.000879258
0.000879256
0.00087719
0.000877189
0.000877188
0.000877188
0.000877187
0.000877186
0.000877185
0.000877185
0.000877185
0.000877186
0.000877188
0.000877192
0.0008772
0.000877215
0.000877239
0.000877278
0.000877342
0.000877448
0.000877621
0.000877924
0.000878407
0.00087942
0.000881615
0.000884258
0.000889548
0.000899893
0.000934864
0.000865655
9.06433e-05
0.000316849
0.00360675
0.000329759
0.000624311
0.00101545
0.000924815
0.000894098
0.000885407
0.000880477
0.000879664
0.000879018
0.000878572
0.000878323
0.000878159
0.00087805
0.000877973
0.000877916
0.000877872
0.000877836
0.000877807
0.000877782
0.000877762
0.000877744
0.000877728
0.000877715
0.000877705
0.000877696
0.000877688
0.000877683
0.00087768
0.000877677
0.000875626
0.000875625
0.000875625
0.000875624
0.000875624
0.000875623
0.000875623
0.000875623
0.000875624
0.000875625
0.000875628
0.000875635
0.000875645
0.000875663
0.000875693
0.000875741
0.000875818
0.000875944
0.000876147
0.000876506
0.000877062
0.000878294
0.000880849
0.000883906
0.000890086
0.000901596
0.000941649
0.000771514
0.000179167
0.00138855
0.00177677
0.000540071
0.000993469
0.00103343
0.000928806
0.000894977
0.000884608
0.000879168
0.000878263
0.00087758
0.000877101
0.000876831
0.000876655
0.000876538
0.000876454
0.000876392
0.000876344
0.000876306
0.000876274
0.000876247
0.000876225
0.000876205
0.000876189
0.000876175
0.000876163
0.000876153
0.000876145
0.000876139
0.000876136
0.000876133
0.000874097
0.000874096
0.000874096
0.000874095
0.000874095
0.000874094
0.000874094
0.000874095
0.000874096
0.000874098
0.000874103
0.000874111
0.000874124
0.000874146
0.000874181
0.000874237
0.000874326
0.00087447
0.000874704
0.000875117
0.000875748
0.000877178
0.000880008
0.000883513
0.000890561
0.000903024
0.000952789
0.000750514
0.000150672
0.00303849
0.00188068
0.000751682
0.00109788
0.00104459
0.000929448
0.000894865
0.000883428
0.000877831
0.000876856
0.000876143
0.000875646
0.000875361
0.000875177
0.000875054
0.000874966
0.0008749
0.000874849
0.000874808
0.000874774
0.000874745
0.000874721
0.0008747
0.000874682
0.000874667
0.000874654
0.000874644
0.000874635
0.000874629
0.000874625
0.000874622
0.0008726
0.000872598
0.000872598
0.000872598
0.000872598
0.000872597
0.000872598
0.000872598
0.0008726
0.000872603
0.000872609
0.000872618
0.000872634
0.000872659
0.000872699
0.000872761
0.000872863
0.000873028
0.000873293
0.000873755
0.000874465
0.000876057
0.000879069
0.000883009
0.000890926
0.000904494
0.0009669
0.000796868
0.000128459
0.000569904
0.00394664
0.00283771
0.00119508
0.0010552
0.000929666
0.000893992
0.000881991
0.000876457
0.000875452
0.000874711
0.000874207
0.000873913
0.000873725
0.000873597
0.000873506
0.000873438
0.000873384
0.000873341
0.000873305
0.000873275
0.000873249
0.000873226
0.000873207
0.000873191
0.000873177
0.000873166
0.000873157
0.00087315
0.000873146
0.000873143
0.000871133
0.000871132
0.000871132
0.000871132
0.000871131
0.000871131
0.000871132
0.000871133
0.000871135
0.000871139
0.000871145
0.000871156
0.000871173
0.0008712
0.000871245
0.000871316
0.000871431
0.000871615
0.000871911
0.000872414
0.000873209
0.000874911
0.000878044
0.000882386
0.000891279
0.00090758
0.000980214
0.000859145
0.000121415
0.000387168
0.000728373
0.00351577
0.00141986
0.00106975
0.000930334
0.000893433
0.000880524
0.000875055
0.000874053
0.000873289
0.000872785
0.000872486
0.000872296
0.000872168
0.000872075
0.000872005
0.000871949
0.000871904
0.000871866
0.000871834
0.000871807
0.000871783
0.000871763
0.000871746
0.000871731
0.000871719
0.00087171
0.000871702
0.000871698
0.000871695
0.000869697
0.000869696
0.000869695
0.000869695
0.000869695
0.000869695
0.000869695
0.000869697
0.000869699
0.000869704
0.000869711
0.000869722
0.000869741
0.000869771
0.000869821
0.000869901
0.000870028
0.000870229
0.000870555
0.00087109
0.000871975
0.000873741
0.000876977
0.00088172
0.000891707
0.000914403
0.00098889
0.00091597
0.000112217
0.000323674
0.000410586
0.0017574
0.00204228
0.0010846
0.000931466
0.000894433
0.000879129
0.000873658
0.000872667
0.000871885
0.000871386
0.000871084
0.000870893
0.000870763
0.00087067
0.000870599
0.000870542
0.000870496
0.000870456
0.000870423
0.000870394
0.000870369
0.000870348
0.000870329
0.000870314
0.000870302
0.000870291
0.000870284
0.000870279
0.000870276
0.000868289
0.000868288
0.000868288
0.000868287