/*--------------------------------*- C++ -*----------------------------------*\
  =========                 |
  \\      /  F ield         | OpenFOAM: The Open Source CFD Toolbox
   \\    /   O peration     | Website:  https://openfoam.org
    \\  /    A nd           | Version:  12
     \\/     M anipulation  |
\*---------------------------------------------------------------------------*/
FoamFile
{
    format      ascii;
    class       volScalarField;
    location    "120";
    object      omega;
}
// * * * * * * * * * * * * * * * * * * * * * * * * * * * * * * * * * * * * * //

dimensions      [0 0 -1 0 0 0 0];

internalField   nonuniform List<scalar> 
16227
(
9.34702
9.34704
9.34704
9.34707
9.34706
9.3471
9.34709
9.34708
9.34707
9.34709
9.34713
9.34715
9.3472
9.3472
9.3472
9.3472
9.3472
9.3472
9.3472
9.3472
9.3472
9.3472
9.3472
9.3472
9.3472
9.3472
9.3472
9.34722
9.34722
9.3472
9.34721
9.3472
9.3472
9.3472
9.34721
9.3472
9.3472
9.3472
9.3472
9.3472
9.3472
9.3472
9.3472
9.3472
9.3472
9.3472
9.3472
9.34719
9.34717
9.34717
9.34717
9.34716
9.3471
9.3471
9.34706
9.34705
9.34707
9.34705
9.34703
9.34702
8.71806
8.71808
8.71808
8.71811
8.71811
8.71815
8.71814
8.71811
8.71812
8.71813
8.71818
8.7182
8.71834
8.7184
8.71841
8.71841
8.71841
8.71841
8.71841
8.71841
8.71842
8.71843
8.71843
8.71843
8.71843
8.71843
8.71843
8.71843
8.71841
8.71836
8.71841
8.71843
8.71843
8.71843
8.71842
8.71841
8.7184
8.7184
8.7184
8.7184
8.7184
8.7184
8.7184
8.71838
8.71838
8.71837
8.71837
8.71837
8.71837
8.71836
8.71833
8.71828
8.71817
8.71815
8.71812
8.7181
8.71813
8.71806
8.71807
8.71804
8.16621
8.16623
8.16623
8.16625
8.16624
8.16633
8.16629
8.16627
8.16628
8.16629
8.16634
8.16635
8.16659
8.16665
8.16666
8.16667
8.16667
8.16667
8.16669
8.16664
8.16667
8.16668
8.16668
8.16667
8.16667
8.16667
8.16667
8.16667
8.16666
8.16659
8.16665
8.16666
8.16666
8.16666
8.16666
8.16666
8.16666
8.16665
8.16664
8.16664
8.16664
8.16664
8.16663
8.16662
8.16662
8.16662
8.16661
8.16661
8.1666
8.16658
8.16654
8.16635
8.16628
8.16626
8.16624
8.16624
8.16627
8.16618
8.16619
8.16617
7.67833
7.67835
7.67835
7.67836
7.67837
7.67843
7.67844
7.6784
7.67841
7.6784
7.67845
7.67851
7.67876
7.67883
7.67885
7.67886
7.67887
7.67888
7.67882
7.67869
7.67881
7.67884
7.67883
7.67884
7.67884
7.67884
7.67883
7.67883
7.67881
7.67872
7.67879
7.67881
7.67881
7.67881
7.67881
7.67882
7.67882
7.67881
7.67882
7.67881
7.67882
7.67881
7.6788
7.67881
7.6788
7.67879
7.67879
7.67879
7.67879
7.67876
7.67864
7.67845
7.67835
7.67837
7.67837
7.67839
7.67836
7.67829
7.67829
7.67827
7.24408
7.24409
7.2441
7.24412
7.24412
7.24418
7.2442
7.24414
7.24415
7.24416
7.24419
7.24425
7.24449
7.24462
7.24464
7.24463
7.24464
7.24462
7.24441
7.24434
7.24453
7.24459
7.24459
7.24458
7.24457
7.24456
7.24455
7.24455
7.24452
7.24443
7.24452
7.24454
7.24455
7.24455
7.24455
7.24456
7.24457
7.24458
7.24458
7.24458
7.24459
7.2446
7.24459
7.24459
7.24459
7.2446
7.2446
7.24459
7.24459
7.2445
7.24427
7.24416
7.24408
7.24411
7.24413
7.24417
7.24411
7.24404
7.24404
7.24402
6.8552
6.85522
6.85522
6.85523
6.85523
6.85528
6.85532
6.85527
6.85525
6.85525
6.85526
6.8553
6.85541
6.85569
6.85575
6.85577
6.85576
6.85566
6.85543
6.85539
6.8556
6.85566
6.85565
6.85563
6.85562
6.85562
6.85561
6.8556
6.85557
6.85548
6.85557
6.85559
6.85561
6.85563
6.85564
6.85565
6.85568
6.85569
6.8557
6.85571
6.85572
6.85574
6.85574
6.85576
6.85576
6.85576
6.85577
6.85577
6.85576
6.85562
6.85538
6.85527
6.85523
6.85527
6.85532
6.8553
6.85525
6.85519
6.85519
6.85517
6.50505
6.50507
6.50506
6.50507
6.50507
6.50511
6.50515
6.50513
6.50509
6.50508
6.50507
6.50507
6.50517
6.50543
6.50556
6.50558
6.50555
6.50526
6.50514
6.50514
6.50536
6.50541
6.50539
6.50537
6.50535
6.50534
6.50532
6.50532
6.50529
6.50519
6.50529
6.50533
6.50535
6.50538
6.50541
6.50543
6.50546
6.50549
6.50552
6.50556
6.50557
6.5056
6.50562
6.50563
6.50565
6.50566
6.50566
6.50567
6.5056
6.50534
6.5052
6.50512
6.50512
6.50519
6.50519
6.50518
6.50514
6.50508
6.50509
6.50507
6.18819
6.18819
6.18819
6.18821
6.18819
6.18823
6.18827
6.18826
6.18822
6.18818
6.18816
6.18812
6.18816
6.18829
6.18857
6.18865
6.18859
6.18826
6.18815
6.18815
6.18837
6.18841
6.18838
6.18835
6.18832
6.1883
6.18829
6.18828
6.18825
6.18815
6.18827
6.18832
6.18836
6.18839
6.18844
6.18848
6.18853
6.18857
6.18862
6.18867
6.18871
6.18874
6.18878
6.18881
6.18884
6.18885
6.18887
6.18886
6.18873
6.18848
6.18836
6.18832
6.18836
6.1884
6.18839
6.18838
6.18834
6.18829
6.1883
6.18828
5.90014
5.90015
5.90015
5.90015
5.90015
5.90017
5.90019
5.90018
5.90017
5.90011
5.90006
5.9
5.90002
5.90011
5.90044
5.90053
5.90038
5.90006
5.89997
5.89995
5.90017
5.90019
5.90014
5.9001
5.90007
5.90005
5.90003
5.90002
5.9
5.8999
5.90002
5.90009
5.90014
5.9002
5.90026
5.90033
5.90039
5.90047
5.90053
5.90059
5.90066
5.90072
5.90076
5.9008
5.90084
5.90088
5.9009
5.90083
5.90057
5.90044
5.90036
5.90039
5.90041
5.90044
5.90044
5.90043
5.9004
5.90035
5.90035
5.90035
5.63721
5.63722
5.63721
5.63721
5.6372
5.63721
5.63724
5.63721
5.63719
5.63716
5.63709
5.63701
5.63701
5.6371
5.63736
5.63745
5.63714
5.63694
5.63686
5.63684
5.63703
5.63705
5.63699
5.63694
5.63689
5.63686
5.63684
5.63683
5.63681
5.63672
5.63686
5.63694
5.637
5.63709
5.63717
5.63726
5.63736
5.63745
5.63755
5.63763
5.63772
5.63779
5.63787
5.63793
5.63799
5.63803
5.63805
5.63796
5.63768
5.63758
5.63756
5.63757
5.63759
5.63762
5.63762
5.63763
5.63759
5.63755
5.63755
5.63755
5.39628
5.39629
5.39628
5.39627
5.39627
5.39627
5.39628
5.39625
5.39622
5.39618
5.39613
5.39601
5.39596
5.39599
5.39608
5.39629
5.39599
5.39583
5.39575
5.39571
5.39583
5.39587
5.39581
5.39574
5.39568
5.39564
5.39561
5.3956
5.39559
5.3955
5.39565
5.39576
5.39585
5.39595
5.39607
5.39619
5.39632
5.39644
5.39657
5.39669
5.39679
5.39689
5.39699
5.39707
5.39714
5.39718
5.39714
5.397
5.39684
5.39676
5.39676
5.39678
5.3968
5.39684
5.39685
5.39685
5.39682
5.39678
5.39678
5.39678
5.17474
5.17475
5.17474
5.17473
5.17471
5.17472
5.17471
5.17468
5.17464
5.17458
5.17452
5.17442
5.17432
5.1743
5.17435
5.1745
5.17427
5.17411
5.17398
5.17391
5.17388
5.17401
5.17397
5.17389
5.17381
5.17376
5.17373
5.17372
5.1737
5.17363
5.17381
5.17393
5.17405
5.17418
5.17433
5.17449
5.17464
5.17481
5.17496
5.17511
5.17526
5.17538
5.1755
5.17561
5.17569
5.17571
5.17558
5.17552
5.17544
5.17537
5.17538
5.17541
5.17543
5.17547
5.17548
5.17548
5.17545
5.17542
5.17542
5.17542
4.97037
4.97037
4.97036
4.97035
4.97033
4.97033
4.97031
4.97028
4.97022
4.97016
4.97009
4.96997
4.96987
4.96976
4.96971
4.9697
4.96964
4.96953
4.96939
4.96928
4.96918
4.96932
4.96927
4.96917
4.96908
4.96901
4.96897
4.96896
4.96895
4.9689
4.96909
4.96923
4.96938
4.96956
4.96974
4.96994
4.97013
4.97033
4.97053
4.97072
4.97089
4.97106
4.9712
4.97133
4.97141
4.97141
4.9713
4.9713
4.97121
4.97117
4.97119
4.97122
4.97125
4.97128
4.9713
4.9713
4.97128
4.97125
4.97125
4.97125
4.78127
4.78128
4.78126
4.78124
4.78122
4.78121
4.78118
4.78114
4.78107
4.781
4.78091
4.78079
4.78067
4.78055
4.78042
4.78036
4.78034
4.78021
4.78004
4.7799
4.77977
4.77989
4.77981
4.77968
4.77957
4.77949
4.77944
4.77943
4.77943
4.77938
4.77959
4.77977
4.77996
4.78017
4.78039
4.78063
4.78089
4.78113
4.78137
4.7816
4.78181
4.78201
4.78217
4.78231
4.78235
4.78233
4.78233
4.78234
4.78228
4.78227
4.78229
4.78232
4.78236
4.78239
4.78241
4.78241
4.78239
4.78237
4.78237
4.78236
4.60581
4.60581
4.6058
4.60578
4.60575
4.60573
4.6057
4.60564
4.60557
4.60548
4.60538
4.60525
4.60511
4.60496
4.60483
4.60474
4.60469
4.60453
4.60433
4.60415
4.60399
4.60406
4.60396
4.6038
4.60366
4.60357
4.6035
4.60349
4.60349
4.60346
4.6037
4.60391
4.60414
4.60439
4.60467
4.60496
4.60526
4.60556
4.60585
4.60612
4.60637
4.60661
4.6068
4.60692
4.60689
4.60696
4.607
4.60703
4.60702
4.60701
4.60705
4.60709
4.60712
4.60716
4.60717
4.60718
4.60716
4.60715
4.60714
4.60714
4.44258
4.44258
4.44256
4.44254
4.44251
4.44249
4.44245
4.44238
4.4423
4.4422
4.44208
4.44193
4.44179
4.44162
4.44146
4.44135
4.44125
4.44107
4.44083
4.44061
4.44042
4.44039
4.4403
4.44011
4.43995
4.43982
4.43975
4.43973
4.43974
4.43973
4.43998
4.44024
4.44051
4.44082
4.44115
4.44151
4.44187
4.44223
4.44256
4.44289
4.44318
4.44345
4.44367
4.44378
4.44379
4.44387
4.44394
4.44396
4.44396
4.444
4.44406
4.4441
4.44414
4.44418
4.44419
4.4442
4.44418
4.44416
4.44417
4.44416
4.29037
4.29036
4.29035
4.29032
4.29029
4.29025
4.29021
4.29013
4.29004
4.28994
4.28981
4.28964
4.28947
4.28928
4.2891
4.28895
4.28884
4.2886
4.28833
4.28805
4.28781
4.28761
4.28758
4.2874
4.28721
4.28705
4.28695
4.28693
4.28694
4.28695
4.28724
4.28753
4.28786
4.28823
4.28863
4.28905
4.28948
4.28989
4.2903
4.29067
4.29102
4.29131
4.29149
4.29159
4.2917
4.29183
4.29193
4.29195
4.29197
4.29204
4.2921
4.29214
4.29218
4.29222
4.29223
4.29224
4.29222
4.2922
4.29221
4.2922
4.1481
4.14809
4.14808
4.14805
4.148
4.14797
4.14792
4.14783
4.14774
4.14762
4.14747
4.14729
4.1471
4.1469
4.14668
4.14651
4.14636
4.1461
4.14578
4.14545
4.14514
4.14485
4.1448
4.1446
4.14436
4.14417
4.14405
4.14401
4.14403
4.14406
4.14439
4.14473
4.14512
4.14555
4.14603
4.14653
4.14703
4.14752
4.14799
4.14842
4.14881
4.14911
4.14923
4.14942
4.1496
4.14977
4.14988
4.14992
4.14997
4.15004
4.1501
4.15015
4.15018
4.15022
4.15024
4.15024
4.15022
4.15021
4.15021
4.1502
4.01484
4.01484
4.01482
4.01479
4.01474
4.0147
4.01465
4.01455
4.01445
4.01432
4.01416
4.01397
4.01376
4.01353
4.01329
4.01308
4.01288
4.01258
4.01224
4.01185
4.01148
4.01115
4.01098
4.01076
4.01048
4.01025
4.0101
4.01004
4.01007
4.01012
4.01048
4.01088
4.01134
4.01186
4.01243
4.01302
4.0136
4.01417
4.0147
4.01519
4.01562
4.01594
4.0161
4.01634
4.01656
4.01674
4.01683
4.01689
4.01698
4.01707
4.01713
4.01717
4.01721
4.01725
4.01726
4.01726
4.01724
4.01723
4.01723
4.01722
3.88978
3.88978
3.88976
3.88972
3.88967
3.88963
3.88957
3.88947
3.88936
3.88922
3.88905
3.88884
3.88862
3.88837
3.8881
3.88784
3.8876
3.88727
3.88688
3.88645
3.886
3.88558
3.88522
3.88504
3.88474
3.88446
3.88427
3.88419
3.88422
3.8843
3.88471
3.88518
3.88573
3.88634
3.887
3.88769
3.88836
3.88902
3.8896
3.89011
3.89056
3.8909
3.89119
3.89148
3.89175
3.89192
3.89202
3.89211
3.89221
3.8923
3.89236
3.89241
3.89245
3.89247
3.89249
3.89248
3.89247
3.89245
3.89245
3.89244
3.77219
3.77219
3.77217
3.77213
3.77208
3.77203
3.77197
3.77186
3.77174
3.77159
3.77142
3.7712
3.77096
3.77068
3.77037
3.77005
3.76975
3.76942
3.76899
3.76851
3.768
3.76749
3.76702
3.76679
3.76643
3.76608
3.76585
3.76574
3.76576
3.76587
3.76633
3.76688
3.76753
3.76826
3.76904
3.76983
3.77061
3.77133
3.77198
3.77256
3.773
3.77341
3.7738
3.77415
3.77441
3.77457
3.77469
3.77482
3.77493
3.77502
3.77508
3.77513
3.77516
3.77518
3.77519
3.77519
3.77516
3.77515
3.77515
3.77514
3.66143
3.66142
3.6614
3.66137
3.66132
3.66126
3.66119
3.66109
3.66096
3.66081
3.66062
3.66039
3.66014
3.65984
3.6595
3.65914
3.65879
3.65843
3.65795
3.6574
3.65682
3.65624
3.65568
3.65532
3.65489
3.65447
3.65417
3.65402
3.65404
3.65419
3.6547
3.65536
3.65612
3.65698
3.6579
3.65883
3.65969
3.66049
3.66123
3.66189
3.66239
3.66287
3.66331
3.66367
3.66394
3.6641
3.66424
3.66439
3.6645
3.66458
3.66464
3.66468
3.6647
3.66472
3.66472
3.66472
3.6647
3.66468
3.66467
3.66466
3.55692
3.55692
3.5569
3.55686
3.55681
3.55675
3.55668
3.55658
3.55645
3.55629
3.55609
3.55585
3.55559
3.55527
3.55492
3.55452
3.55412
3.5537
3.55318
3.55258
3.55192
3.55124
3.55059
3.55003
3.54963
3.5491
3.54872
3.54853
3.54855
3.54871
3.54931
3.55009
3.551
3.55202
3.55309
3.55417
3.55504
3.55593
3.55671
3.55744
3.55808
3.55864
3.55911
3.55946
3.55971
3.55991
3.56008
3.56023
3.56034
3.56041
3.56046
3.56049
3.56051
3.56052
3.56052
3.5605
3.56048
3.56046
3.56045
3.56044
3.45817
3.45816
3.45814
3.4581
3.45805
3.45799
3.45792
3.45781
3.45768
3.45752
3.45733
3.45708
3.4568
3.45647
3.4561
3.45566
3.45519
3.4547
3.45416
3.45352
3.45279
3.45201
3.45126
3.45073
3.4983
3.49778
3.49734
3.49711
3.49711
3.49729
3.49793
3.49878
3.49978
3.5009
3.50208
3.50324
3.45683
3.45719
3.45808
3.4589
3.45961
3.46022
3.46069
3.46102
3.46128
3.4615
3.46169
3.46184
3.46193
3.462
3.46204
3.46206
3.46206
3.46207
3.46206
3.46204
3.46201
3.46198
3.46197
3.46196
3.3647
3.36469
3.36467
3.36464
3.36458
3.36453
3.36446
3.36435
3.36422
3.36406
3.36386
3.36361
3.36333
3.36299
3.3626
3.36214
3.36162
3.36105
3.36045
3.35979
3.35899
3.35813
3.35747
3.40223
3.39991
3.39943
3.39887
3.39854
3.3985
3.3987
3.39943
3.40043
3.40163
3.40297
3.40438
3.40567
3.40874
3.36445
3.36491
3.36578
3.36654
3.36716
3.36762
3.36795
3.36821
3.36845
3.36862
3.36875
3.36884
3.36889
3.36892
3.36892
3.36892
3.36891
3.36889
3.36886
3.36883
3.3688
3.36878
3.36877
3.27611
3.2761
3.27608
3.27605
3.276
3.27595
3.27588
3.27578
3.27565
3.27549
3.27529
3.27505
3.27476
3.27442
3.27401
3.27354
3.27299
3.27237
3.27171
3.27099
3.27014
3.26918
3.26858
3.30923
3.307
3.32891
3.32831
3.3279
3.32782
3.32802
3.32882
3.32994
3.3313
3.33284
3.33445
3.31391
3.31659
3.27668
3.27677
3.27767
3.27844
3.27903
3.27946
3.2798
3.28008
3.2803
3.28046
3.28057
3.28064
3.28067
3.28068
3.28067
3.28065
3.28063
3.2806
3.28056
3.28052
3.28049
3.28047
3.28045
3.19204
3.19203
3.19201
3.19198
3.19194
3.19189
3.19182
3.19172
3.1916
3.19144
3.19126
3.19101
3.19073
3.19039
3.18998
3.1895
3.18893
3.18828
3.18755
3.18675
3.18586
3.18486
3.18434
3.22116
3.21908
3.23873
3.23827
3.23775
3.23757
3.23781
3.23861
3.23985
3.24143
3.24325
3.24506
3.22756
3.22941
3.19364
3.19335
3.1942
3.19492
3.19547
3.19589
3.19623
3.1965
3.1967
3.19683
3.19692
3.19696
3.19697
3.19696
3.19693
3.1969
3.19686
3.19682
3.19678
3.19673
3.19669
3.19667
3.19664
3.11214
3.11213
3.11212
3.11209
3.11205
3.11201
3.11194
3.11185
3.11174
3.11159
3.11141
3.11118
3.1109
3.11057
3.11017
3.10969
3.10912
3.10845
3.10767
3.10681
3.10586
3.10484
3.10448
3.13787
3.13583
3.15329
3.1532
3.15262
3.15246
3.1528
3.15372
3.15508
3.15682
3.15876
3.16078
3.1459
3.14704
3.11501
3.11431
3.11503
3.11568
3.11619
3.1166
3.11692
3.11715
3.11731
3.11741
3.11746
3.11747
3.11745
3.11742
3.11737
3.11732
3.11727
3.11721
3.11716
3.1171
3.11706
3.11703
3.11701
3.03612
3.03611
3.0361
3.03608
3.03604
3.036
3.03595
3.03587
3.03576
3.03563
3.03546
3.03524
3.03498
3.03466
3.03428
3.03381
3.03325
3.03259
3.03181
3.03091
3.02991
3.02887
3.02874
3.05912
3.05719
3.07287
3.07313
3.07301
3.07344
3.07447
3.0757
3.07692
3.07825
3.07975
3.08153
3.06906
3.06932
3.04047
3.03934
3.03986
3.04044
3.04091
3.04127
3.04153
3.04171
3.04182
3.04187
3.04188
3.04186
3.04182
3.04176
3.04169
3.04161
3.04155
3.04148
3.04141
3.04135
3.0413
3.04127
3.04124
2.96371
2.9637
2.96369
2.96367
2.96364
2.96361
2.96356
2.9635
2.9634
2.96328
2.96313
2.96293
2.96269
2.9624
2.96204
2.96159
2.96106
2.96043
2.95968
2.9588
2.95782
2.9568
2.95696
2.98477
2.98316
2.99742
2.99923
3.0008
3.00457
3.00919
3.01143
3.01046
3.00851
3.00758
3.00772
2.99687
2.99606
2.96979
2.96826
2.96854
2.96899
2.96935
2.96962
2.96979
2.9699
2.96995
2.96996
2.96992
2.96986
2.96979
2.9697
2.9696
2.96951
2.96943
2.96934
2.96927
2.96919
2.96914
2.9691
2.96907
2.89465
2.89464
2.89463
2.89462
2.8946
2.89458
2.89454
2.89448
2.89441
2.8943
2.89417
2.89399
2.89378
2.89352
2.89319
2.89279
2.89231
2.89172
2.89103
2.89023
2.88935
2.88845
2.88904
2.91466
2.91386
2.92795
2.93321
2.94251
2.96355
2.9903
2.99601
2.97731
2.95717
2.94567
2.94069
2.92945
2.92715
2.90271
2.90084
2.90079
2.90102
2.90123
2.90137
2.90145
2.90147
2.90145
2.9014
2.90132
2.90122
2.90111
2.90099
2.90087
2.90075
2.90065
2.90055
2.90046
2.90038
2.90032
2.90028
2.90025
2.82871
2.82871
2.8287
2.8287
2.82868
2.82867
2.82865
2.8286
2.82854
2.82846
2.82835
2.82821
2.82802
2.8278
2.82752
2.82717
2.82675
2.82624
2.82565
2.82497
2.82426
2.82364
2.82498
2.84884
2.84937
2.86516
2.87898
2.91874
3.05269
3.29588
3.3059
3.09643
2.95618
2.90219
2.88288
2.86681
2.8625
2.83908
2.83678
2.83632
2.83627
2.83629
2.83628
2.83625
2.83618
2.83609
2.83597
2.83584
2.8357
2.83555
2.8354
2.83525
2.83512
2.83499
2.83488
2.83478
2.83469
2.83462
2.83458
2.83454
2.7657
2.7657
2.7657
2.7657
2.76569
2.76569
2.76567
2.76564
2.7656
2.76554
2.76546
2.76535
2.76521
2.76502
2.7648
2.76452
2.76417
2.76377
2.7633
2.7628
2.76233
2.76213
2.76448
2.78723
2.78994
2.80909
2.84048
2.99104
3.86589
8.4726
7.74231
4.32355
3.11965
2.89174
2.83633
2.80945
2.80207
2.7785
2.77576
2.77484
2.77447
2.77428
2.77411
2.77396
2.7738
2.77363
2.77345
2.77326
2.77308
2.77289
2.77271
2.77254
2.77239
2.77224
2.77212
2.77201
2.77191
2.77183
2.77178
2.77175
2.70542
2.70542
2.70542
2.70543
2.70543
2.70543
2.70543
2.70542
2.7054
2.70536
2.70531
2.70523
2.70513
2.705
2.70483
2.70463
2.70438
2.7041
2.70379
2.7035
2.70332
2.70367
2.70721
2.7293
2.73467
2.75834
2.81333
3.20303
10.9623
14.5241
3.64898
2.92125
2.80089
2.75678
2.74515
2.72061
2.71741
2.71605
2.71535
2.71495
2.71462
2.71435
2.7141
2.71385
2.71361
2.71338
2.71315
2.71294
2.71273
2.71254
2.71236
2.7122
2.71207
2.71194
2.71184
2.71176
2.71171
2.71168
2.6477
2.6477
2.6477
2.64771
2.64772
2.64774
2.64775
2.64776
2.64775
2.64774
2.64772
2.64767
2.64762
2.64754
2.64744
2.64732
2.64718
2.64703
2.6469
2.64686
2.647
2.64796
2.65275
2.67444
2.68244
2.70992
2.78223
3.36311
31.11
423.411
32.4353
4.07983
2.95746
2.76994
2.70743
2.69096
2.66513
2.66152
2.65978
2.65878
2.65817
2.65769
2.65731
2.65696
2.65665
2.65635
2.65607
2.6558
2.65555
2.65531
2.65509
2.6549
2.65472
2.65457
2.65444
2.65433
2.65424
2.65419
2.65416
2.59237
2.59237
2.59238
2.5924
2.59242
2.59244
2.59246
2.59249
2.5925
2.59252
2.59252
2.59252
2.5925
2.59249
2.59246
2.59242
2.59239
2.59239
2.59244
2.59265
2.5931
2.59473
2.60072
2.62224
2.63259
2.66255
2.74632
3.47619
296.345
257.546
77.8982
25.7154
4.19493
2.96608
2.73524
2.65944
2.63848
2.61169
2.60778
2.60575
2.6045
2.60372
2.60311
2.60263
2.6022
2.60182
2.60147
2.60114
2.60083
2.60055
2.60029
2.60004
2.59982
2.59964
2.59947
2.59933
2.59921
2.59912
2.59906
2.59902
2.5393
2.5393
2.53931
2.53933
2.53936
2.53939
2.53943
2.53946
2.5395
2.53954
2.53957
2.5396
2.53963
2.53967
2.53971
2.53976
2.53984
2.53996
2.54019
2.54064
2.54139
2.54369
2.55068
2.57224
2.58479
2.61658
2.7139
4.00868
420.019
61.9846
79.1297
16.196
4.14939
2.94537
2.6927
2.61142
2.58698
2.56006
2.55595
2.55374
2.55233
2.55141
2.55071
2.55014
2.54964
2.5492
2.54881
2.54844
2.5481
2.54778
2.54749
2.54723
2.54699
2.54679
2.54661
2.54646
2.54633
2.54623
2.54617
2.54613
2.48834
2.48834
2.48836
2.48838
2.48841
2.48845
2.4885
2.48855
2.48861
2.48866
2.48873
2.48879
2.48886
2.48895
2.48905
2.48917
2.48933
2.48955
2.48995
2.49065
2.49176
2.49464
2.50239
2.52413
2.53868
2.57167
2.68873
4.30044
306.411
57.8314
45.9595
10.8333
4.08745
2.90683
2.64317
2.56242
2.53621
2.51003
2.50589
2.50358
2.5021
2.5011
2.50033
2.49969
2.49915
2.49867
2.49823
2.49782
2.49745
2.49712
2.4968
2.49652
2.49627
2.49605
2.49586
2.49569
2.49556
2.49545
2.49539
2.49535
2.43937
2.43937
2.43939
2.43942
2.43946
2.43951
2.43957
2.43963
2.4397
2.43977
2.43986
2.43995
2.44006
2.44018
2.44032
2.44047
2.44071
2.44108
2.44166
2.4426
2.44405
2.44738
2.45557
2.47732
2.4938
2.52792
2.66785
4.15867
242.842
170.028
52.362
13.6233
4.14528
2.86817
2.59348
2.51285
2.48646
2.4616
2.45753
2.45519
2.45369
2.45264
2.45183
2.45117
2.4506
2.45008
2.44961
2.44918
2.44878
2.44842
2.44809
2.44779
2.44752
2.44729
2.44708
2.44691
2.44677
2.44666
2.44659
2.44655
2.39227
2.39228
2.3923
2.39233
2.39238
2.39243
2.3925
2.39257
2.39265
2.39275
2.39286
2.39297
2.39309
2.39321
2.39338
2.39362
2.39398
2.39448
2.39521
2.39634
2.39808
2.40169
2.4101
2.43165
2.45008
2.48834
2.64303
3.85107
178.333
187.593
121.633
43.042
4.68852
2.84273
2.54663
2.4658
2.43823
2.41457
2.41076
2.40842
2.40695
2.40589
2.40509
2.40445
2.40386
2.40333
2.40283
2.40238
2.40196
2.40158
2.40123
2.40092
2.40063
2.40039
2.40018
2.4
2.39985
2.39973
2.39966
2.39962
2.34695
2.34696
2.34698
2.34702
2.34706
2.34712
2.3472
2.34728
2.34737
2.34748
2.34759
2.34771
2.34783
2.34799
2.34823
2.34855
2.34898
2.34957
2.35043
2.35168
2.35367
2.35741
2.36588
2.38713
2.40753
2.45714
2.60742
3.55705
109.763
175.761
147.351
80.5173
6.39024
2.82566
2.50267
2.42367
2.39199
2.36927
2.36561
2.36327
2.36189
2.36088
2.36008
2.35941
2.35884
2.3583
2.3578
2.35733
2.35689
2.35649
2.35613
2.3558
2.35551
2.35525
2.35503
2.35484
2.35469
2.35457
2.3545
2.35445
2.30329
2.3033
2.30333
2.30336
2.30341
2.30348
2.30356
2.30364
2.30374
2.30384
2.30394
2.30406
2.30422
2.30444
2.30472
2.30509
2.30558
2.30624
2.30719
2.30853
2.31071
2.31447
2.32312
2.34386
2.36573
2.43274
2.56047
3.37426
77.5574
157.224
146.518
92.8299
7.75326
2.7972
2.45887
2.38607
2.34758
2.3256
2.32211
2.31982
2.31843
2.31748
2.3167
2.31602
2.31541
2.31487
2.31439
2.31392
2.31347
2.31306
2.31269
2.31234
2.31204
2.31177
2.31154
2.31135
2.31119
2.31107
2.31099
2.31094
2.26122
2.26123
2.26126
2.26129
2.26134
2.26141
2.26149
2.26158
2.26167
2.26176
2.26186
2.26201
2.2622
2.26245
2.26275
2.26315
2.26367
2.26438
2.26541
2.26677
2.26909
2.2729
2.28176
2.30197
2.32426
2.40725
2.50604
3.28107
68.0067
143.553
136.857
88.318
8.01768
2.75271
2.41528
2.34991
2.30495
2.28355
2.28011
2.27794
2.27657
2.27558
2.27485
2.2742
2.27358
2.27302
2.27252
2.27206
2.27162
2.2712
2.27081
2.27046
2.27014
2.26987
2.26963
2.26943
2.26927
2.26914
2.26906
2.26901
2.22064
2.22065
2.22068
2.22072
2.22077
2.22084
2.22091
2.22099
2.22107
2.22116
2.22129
2.22145
2.22166
2.22191
2.22223
2.22264
2.22319
2.22392
2.22498
2.22634
2.22881
2.23263
2.24184
2.26155
2.28308
2.37332
2.44873
3.20895
71.7427
133.927
126.006
74.3366
7.99742
2.70414
2.3732
2.31296
2.264
2.24314
2.23957
2.23751
2.23621
2.23522
2.23445
2.23382
2.23321
2.23265
2.23213
2.23167
2.23123
2.23081
2.23041
2.23005
2.22973
2.22945
2.2292
2.229
2.22883
2.2287
2.22862
2.22857
2.18148
2.18149
2.18152
2.18156
2.18161
2.18167
2.18172
2.18179
2.18188
2.18199
2.18213
2.18229
2.1825
2.18275
2.18307
2.18348
2.18404
2.18478
2.18585
2.18722
2.18978
2.19359
2.20338
2.22272
2.24239
2.33066
2.39158
3.0948
66.9506
125.453
117.644
64.8137
7.97396
2.65936
2.33314
2.27499
2.22467
2.20436
2.20047
2.19851
2.19724
2.19629
2.19551
2.19484
2.19421
2.19364
2.19315
2.19268
2.19223
2.19182
2.19142
2.19105
2.19073
2.19044
2.19018
2.18997
2.1898
2.18967
2.18958
2.18953
2.14367
2.14368
2.1437
2.14374
2.14378
2.14383
2.14388
2.14396
2.14405
2.14417
2.1443
2.14446
2.14465
2.1449
2.14521
2.14562
2.14616
2.14687
2.14793
2.14932
2.15191
2.15574
2.16637
2.18556
2.20249
2.2841
2.33639
2.94098
53.6531
111.119
109.658
58.7081
8.40119
2.62547
2.29492
2.23685
2.18691
2.16718
2.16276
2.16086
2.15962
2.15869
2.15792
2.15724
2.15661
2.15602
2.15548
2.15502
2.15457
2.15415
2.15376
2.15339
2.15305
2.15276
2.1525
2.15229
2.15211
2.15197
2.15189
2.15184
2.10713
2.10714
2.10716
2.10719
2.10722
2.10727
2.10733
2.1074
2.10749
2.1076
2.10773
2.10788
2.10806
2.1083
2.10859
2.10898
2.10949
2.11016
2.11121
2.11261
2.11515
2.11902
2.13078
2.15017
2.16367
2.23893
2.28544
2.78676
39.3593
91.2143
100.927
55.9183
9.74347
2.60435
2.25833
2.19936
2.15063
2.13152
2.1264
2.12452
2.12329
2.12237
2.1216
2.12091
2.12028
2.11969
2.11912
2.11861
2.11817
2.11774
2.11735
2.11698
2.11665
2.11635
2.11609
2.11586
2.11569
2.11555
2.11546
2.11541
2.07181
2.07182
2.07183
2.07186
2.07188
2.07193
2.07199
2.07206
2.07214
2.07224
2.07236
2.0725
2.07267
2.07288
2.07316
2.07351
2.07396
2.07462
2.07565
2.07702
2.07947
2.0834
2.09655
2.11661
2.12648
2.19688
2.24215
2.66098
27.7681
67.7342
91.1531
53.3236
11.3632
2.592
2.22308
2.16289
2.11572
2.09727
2.09133
2.08942
2.08819
2.08727
2.08649
2.0858
2.08516
2.08456
2.08399
2.08345
2.08296
2.08254
2.08214
2.08177
2.08144
2.08114
2.08087
2.08065
2.08046
2.08033
2.08024
2.08018
2.03764
2.03765
2.03766
2.03767
2.0377
2.03775
2.03781
2.03787
2.03794
2.03803
2.03814
2.03826
2.03841
2.03861
2.03885
2.03916
2.03957
2.04021
2.04117
2.04252
2.04483
2.04885
2.06353
2.08481
2.09199
2.15489
2.22825
2.56501
19.7833
53.1596
81.0569
48.0024
12.3196
2.57707
2.18871
2.12755
2.08206
2.0643
2.05748
2.05551
2.05426
2.05334
2.05254
2.05184
2.05119
2.05057
2.04999
2.04945
2.04893
2.04847
2.04807
2.0477
2.04736
2.04707
2.0468
2.04658
2.04639
2.04625
2.04616
2.0461
2.00457
2.00457
2.00458
2.0046
2.00463
2.00467
2.00472
2.00477
2.00484
2.00492
2.00501
2.00511
2.00525
2.00541
2.00562
2.00588
2.00627
2.00687
2.00776
2.00907
2.01122
2.01534
2.03153
2.05422
2.0601
2.13059
2.28666
2.48285
15.2367
48.1374
72.0082
41.899
12.2628
2.54755
2.15486
2.09339
2.04952
2.03246
2.0248
2.02272
2.02146
2.02051
2.0197
2.01897
2.0183
2.01767
2.01708
2.01653
2.01601
2.01552
2.01509
2.01472
2.01438
2.01408
2.01382
2.01359
2.0134
2.01326
2.01317
2.01311
1.97255
1.97255
1.97256
1.97258
1.9726
1.97264
1.97268
1.97273
1.97278
1.97285
1.97292
1.97301
1.97312
1.97326
1.97343
1.97366
1.97401
1.97456
1.97537
1.97664
1.97864
1.98281
2.00023
2.0241
2.02643
2.1556
2.38979
2.42823
13.9555
47.6901
63.5838
37.583
11.6655
2.50998
2.12161
2.06049
2.01797
2.00161
1.99319
1.991
1.98971
1.98873
1.98789
1.98715
1.98646
1.98581
1.98521
1.98464
1.98411
1.98362
1.98317
1.98277
1.98243
1.98213
1.98186
1.98164
1.98145
1.98131
1.98121
1.98116
1.94153
1.94153
1.94154
1.94155
1.94157
1.9416
1.94164
1.94168
1.94173
1.94178
1.94184
1.94191
1.942
1.9421
1.94222
1.94244
1.94275
1.94325
1.94399
1.94521
1.94709
1.9513
1.9694
1.99427
1.99978
2.24003
2.43473
2.56884
15.7198
45.5002
55.2997
34.1265
10.7591
2.46852
2.08983
2.02895
1.98733
1.97166
1.9626
1.96028
1.95896
1.95795
1.95708
1.95632
1.9556
1.95494
1.95432
1.95374
1.9532
1.9527
1.95224
1.95183
1.95147
1.95117
1.9509
1.95068
1.95049
1.95034
1.95025
1.95019
1.91146
1.91147
1.91147
1.91149
1.9115
1.91153
1.91156
1.91159
1.91162
1.91167
1.91171
1.91176
1.91182
1.91189
1.912
1.91219
1.91246
1.91291
1.91359
1.91475
1.91654
1.92081
1.93905
1.96447
2.00844
2.38293
2.46395
3.28583
18.7692
41.7517
48.3764
30.7996
9.75459
2.42448
2.05991
1.99881
1.95755
1.94251
1.93296
1.93052
1.92916
1.92812
1.92722
1.92642
1.92569
1.92501
1.92437
1.92378
1.92323
1.92272
1.92225
1.92183
1.92146
1.92114
1.92087
1.92065
1.92047
1.92032
1.92022
1.92017
1.88232
1.88232
1.88232
1.88233
1.88235
1.88237
1.88239
1.88241
1.88244
1.88247
1.8825
1.88253
1.88257
1.88261
1.8827
1.88286
1.8831
1.88351
1.88413
1.88524
1.88699
1.8913
1.90932
1.93484
2.06371
2.55352
2.57331
4.78382
21.7484
38.9404
42.8982
27.5832
8.78702
2.37837
2.03228
1.96991
1.92868
1.9141
1.90422
1.90166
1.90026
1.89918
1.89825
1.89743
1.89667
1.89597
1.89532
1.89471
1.89415
1.89363
1.89316
1.89273
1.89235
1.89202
1.89174
1.89152
1.89134
1.8912
1.8911
1.89104
1.85404
1.85404
1.85405
1.85405
1.85406
1.85408
1.8541
1.85411
1.85413
1.85415
1.85417
1.85418
1.85419
1.85423
1.8543
1.85443
1.85463
1.85501
1.85558
1.85663
1.85837
1.86275
1.88036
1.90614
2.15031
2.69384
2.78068
6.64616
23.7574
36.628
38.1231
24.5822
7.90886
2.33016
2.00727
1.94211
1.90069
1.88638
1.87632
1.87365
1.87221
1.87109
1.87013
1.86928
1.86851
1.86779
1.86712
1.8665
1.86593
1.8654
1.86492
1.86449
1.86411
1.86377
1.86348
1.86325
1.86306
1.86293
1.86283
1.86278
1.8266
1.8266
1.8266
1.82661
1.82662
1.82663
1.82664
1.82665
1.82666
1.82667
1.82668
1.82667
1.82667
1.82669
1.82675
1.82685
1.82703
1.82737
1.82792
1.82892
1.83067
1.83511
1.85231
1.87969
2.24585
3.02713
3.24031
10.2552
26.3176
34.1213
31.806
20.0507
5.7751
2.1997
1.97372
1.9152
1.87348
1.85933
1.84919
1.84645
1.84495
1.84381
1.84282
1.84195
1.84115
1.84042
1.83974
1.83911
1.83852
1.83799
1.8375
1.83706
1.83668
1.83634
1.83605
1.8358
1.83561
1.83548
1.83539
1.83533
1.79996
1.79996
1.79996
1.79997
1.79997
1.79998
1.79998
1.79999
1.79999
1.79999
1.79999
1.79996
1.79996
1.79997
1.80001
1.8001
1.80026
1.80057
1.8011
1.80205
1.80383
1.80838
1.82652
1.89916
2.32173
2.99451
3.59189
11.2358
25.7082
31.9865
28.7342
18.0025
5.41523
2.16121
1.95736
1.88958
1.83295
1.83286
1.82278
1.82
1.81845
1.8173
1.81627
1.81539
1.81457
1.81382
1.81313
1.81249
1.8119
1.81136
1.81086
1.81042
1.81003
1.80969
1.80939
1.80915
1.80895
1.80881
1.80873
1.80867
1.77409
1.77409
1.77409
1.77409
1.77409
1.7741
1.7741
1.7741
1.7741
1.77409
1.77407
1.77404
1.77403
1.77404
1.77406
1.77413
1.77428
1.77457
1.77508
1.776
1.77782
1.78253
1.80272
1.91191
2.52579
3.17378
5.39781
15.147
26.1903
28.7746
23.0436
13.2347
3.86671
2.04162
1.92189
1.83682
1.80755
1.80693
1.79704
1.79426
1.79267
1.79151
1.79045
1.78956
1.78872
1.78797
1.78726
1.78661
1.78602
1.78547
1.78497
1.78453
1.78413
1.78378
1.78349
1.78324
1.78304
1.7829
1.78281
1.78276
1.74896
1.74896
1.74895
1.74895
1.74895
1.74895
1.74895
1.74895
1.74894
1.74892
1.74889
1.74886
1.74885
1.74885
1.74886
1.74892
1.74906
1.74933
1.74984
1.75073
1.75258
1.75751
1.78064
1.92299
2.51977
3.19894
5.7289
15.1597
25.1181
27.0953
21.4673
12.2939
3.74415
2.0178
1.90283
1.81284
1.78259
1.78156
1.77195
1.76919
1.76758
1.76641
1.76534
1.76443
1.76358
1.76282
1.7621
1.76145
1.76085
1.7603
1.7598
1.75934
1.75895
1.7586
1.7583
1.75805
1.75785
1.75771
1.75761
1.75757
1.72452
1.72452
1.72452
1.72452
1.72452
1.72451
1.72451
1.7245
1.72449
1.72447
1.72443
1.7244
1.72438
1.72437
1.72438
1.72444
1.72457
1.72483
1.72533
1.72621
1.72809
1.7333
1.76012
1.93214
2.50997
3.21763
5.96808
15.1293
24.1688
25.7024
20.1786
11.5198
3.631
1.99486
1.88411
1.78937
1.75813
1.75679
1.7475
1.74476
1.74313
1.74197
1.74088
1.73997
1.73911
1.73835
1.73763
1.73697
1.73636
1.73581
1.7353
1.73485
1.73445
1.7341
1.7338
1.73355
1.73335
1.7332
1.73311
1.73306
1.70077
1.70077
1.70076
1.70076
1.70076
1.70075
1.70075
1.70074
1.70072
1.70068
1.70065
1.70063
1.7006
1.70059
1.7006
1.70064
1.70077
1.70102
1.70153
1.70239
1.70431
1.70986
1.74102
1.93928
2.49683
3.22884
6.1416
15.072
23.2911
24.5094
19.0956
10.8748
3.52645
1.97281
1.86565
1.76639
1.7342
1.73262
1.72365
1.72094
1.71931
1.71817
1.71707
1.71616
1.71529
1.71452
1.7138
1.71314
1.71253
1.71197
1.71146
1.71101
1.71061
1.71026
1.70996
1.70971
1.70951
1.70936
1.70926
1.70921
1.67766
1.67766
1.67766
1.67765
1.67765
1.67764
1.67764
1.67762
1.6776
1.67756
1.67753
1.67751
1.67748
1.67747
1.67747
1.67751
1.67764
1.67788
1.67839
1.67924
1.68119
1.68715
1.72314
1.94423
2.4807
3.23281
6.2672
14.9911
22.4483
23.4571
18.1621
10.3319
3.42982
1.95163
1.8474
1.74386
1.71082
1.70905
1.70039
1.69772
1.6961
1.69497
1.69387
1.69296
1.69209
1.69132
1.69059
1.68993
1.68932
1.68876
1.68826
1.6878
1.6874
1.68705
1.68675
1.6865
1.6863
1.68615
1.68605
1.68599
1.65518
1.65518
1.65517
1.65517