/*--------------------------------*- C++ -*----------------------------------*\
  =========                 |
  \\      /  F ield         | OpenFOAM: The Open Source CFD Toolbox
   \\    /   O peration     | Website:  https://openfoam.org
    \\  /    A nd           | Version:  12
     \\/     M anipulation  |
\*---------------------------------------------------------------------------*/
FoamFile
{
    format      ascii;
    class       volScalarField;
    location    "120";
    object      p;
}
// * * * * * * * * * * * * * * * * * * * * * * * * * * * * * * * * * * * * * //

dimensions      [0 2 -2 0 0 0 0];

internalField   nonuniform List<scalar> 
16227
(
0.0548751
0.0549316
0.0550442
0.0552119
0.055433
0.0557055
0.0560268
0.0563933
0.0568013
0.0572459
0.0577221
0.0582238
0.0587444
0.0592763
0.0598117
0.0603418
0.0608575
0.0613491
0.0618068
0.0622205
0.0625803
0.0628764
0.0630995
0.0632412
0.0632941
0.0632517
0.0631094
0.0628638
0.0625137
0.0620594
0.061503
0.0608484
0.0601017
0.0592703
0.0583628
0.0573891
0.05636
0.0552864
0.0541801
0.0530525
0.0519148
0.0507779
0.0496521
0.0485471
0.0474715
0.0464335
0.04544
0.0444975
0.0436113
0.0427861
0.042026
0.0413342
0.0407136
0.0401662
0.0396939
0.0392985
0.0389811
0.0387424
0.0385829
0.0385028
0.0548329
0.0548898
0.0550032
0.055172
0.0553947
0.0556692
0.0559929
0.0563624
0.0567737
0.0572223
0.0577028
0.0582094
0.0587354
0.0592733
0.059815
0.0603519
0.0608746
0.0613736
0.0618386
0.0622597
0.0626267
0.0629296
0.063159
0.0633063
0.0633638
0.063325
0.0631851
0.0629407
0.0625903
0.0621342
0.0615747
0.0609159
0.0601638
0.0593259
0.0584113
0.0574299
0.0563925
0.0553106
0.0541958
0.0530599
0.0519143
0.0507699
0.0496371
0.0485256
0.0474442
0.046401
0.045403
0.0444564
0.0435668
0.0427388
0.0419762
0.0412824
0.0406599
0.0401111
0.039638
0.0392418
0.0389238
0.0386847
0.038525
0.0384449
0.0547423
0.0548001
0.0549152
0.0550866
0.0553128
0.0555917
0.0559207
0.0562967
0.0567155
0.0571727
0.0576629
0.0581803
0.0587183
0.0592692
0.059825
0.0603767
0.0609151
0.0614301
0.0619115
0.0623489
0.0627317
0.0630496
0.0632929
0.0634523
0.06352
0.063489
0.0633542
0.0631121
0.0627609
0.0623009
0.0617344
0.0610658
0.0603015
0.0594492
0.0585183
0.0575193
0.0564634
0.0553627
0.054229
0.0530746
0.0519112
0.0507499
0.0496014
0.0484755
0.0473812
0.0463263
0.045318
0.0443626
0.0434654
0.0426308
0.0418628
0.0411644
0.040538
0.0399863
0.0395109
0.0391131
0.0387939
0.0385539
0.0383936
0.0383133
0.0545941
0.0546533
0.0547712
0.0549469
0.055179
0.0554653
0.0558033
0.05619
0.0566214
0.0570929
0.0575994
0.0581349
0.058693
0.0592658
0.0598452
0.060422
0.0609866
0.0615288
0.0620377
0.0625024
0.062912
0.0632553
0.0635218
0.0637017
0.0637864
0.0637685
0.0636423
0.0634036
0.0630507
0.0625838
0.0620051
0.0613197
0.0605341
0.0596569
0.058698
0.0576687
0.0565811
0.055448
0.054282
0.0530959
0.051902
0.0507121
0.0495369
0.0483865
0.04727
0.0461955
0.0451699
0.0441995
0.0432895
0.0424441
0.0416669
0.0409606
0.0403279
0.0397715
0.0392924
0.0388918
0.0385704
0.038329
0.0381678
0.0380871
0.0543874
0.0544485
0.0545703
0.054752
0.054992
0.0552885
0.0556389
0.0560404
0.0564891
0.0569805
0.0575096
0.0580703
0.0586561
0.0592596
0.0598719
0.0604839
0.0610854
0.0616657
0.0622134
0.0627168
0.0631643
0.0635436
0.0638432
0.0640524
0.0641615
0.0641623
0.0640482
0.0638146
0.0634595
0.0629826
0.0623868
0.0616772
0.0608614
0.0599486
0.0589498
0.0578775
0.0567448
0.0555657
0.054354
0.0531233
0.0518866
0.0506564
0.0494438
0.0482594
0.0471122
0.0460104
0.044961
0.04397
0.0430424
0.0421821
0.0413923
0.0406754
0.0400346
0.0394718
0.0389878
0.0385834
0.0382594
0.0380159
0.0378535
0.0377722
0.05412
0.0541836
0.0543102
0.0544992
0.0547491
0.0550582
0.0554242
0.0558441
0.0563145
0.056831
0.0573885
0.0579811
0.0586021
0.0592444
0.0598989
0.0605559
0.061205
0.0618346
0.0624326
0.0629866
0.0634835
0.06391
0.0642533
0.0645012
0.0646428
0.0646686
0.064571
0.0643448
0.063987
0.0634977
0.0628797
0.0621389
0.0612837
0.0603245
0.0592738
0.0581456
0.0569545
0.0557159
0.0544452
0.0531569
0.0518654
0.0505836
0.0493236
0.048096
0.0469102
0.0457742
0.0446951
0.0436784
0.0427291
0.0418504
0.0410449
0.0403155
0.0396653
0.0390949
0.038605
0.0381962
0.037869
0.0376232
0.0374593
0.0373774
0.0537886
0.053855
0.0539873
0.0541849
0.0544465
0.0547706
0.0551549
0.0555968
0.0560929
0.0566394
0.0572311
0.0578623
0.0585262
0.0592157
0.0599218
0.0606342
0.0613418
0.0620326
0.0626936
0.0633109
0.0638701
0.0643565
0.0647553
0.0650529
0.0652364
0.0652947
0.065219
0.0650028
0.0646426
0.0641381
0.0634925
0.0627127
0.061808
0.0607906
0.0596746
0.0584762
0.057212
0.0558992
0.054555
0.0531956
0.0518364
0.0504915
0.0491735
0.0478934
0.046661
0.0454841
0.0443694
0.0433225
0.0423476
0.0414471
0.0406235
0.0398803
0.0392193
0.0386405
0.0381441
0.0377304
0.0373995
0.0371513
0.0369859
0.0369032
0.0533897
0.0534593
0.0535981
0.0538054
0.0540804
0.0544215
0.0548269
0.0552941
0.0558201
0.0564012
0.0570329
0.0577094
0.0584239
0.0591691
0.0599367
0.0607155
0.0614937
0.0622587
0.0629965
0.0636914
0.0643275
0.0648882
0.0653564
0.0657163
0.0659528
0.0660527
0.0660052
0.0658025
0.0654402
0.0649176
0.0642383
0.0634103
0.0624444
0.0613549
0.0601584
0.0588734
0.0575193
0.0561156
0.0546819
0.0532362
0.0517955
0.0503748
0.0489877
0.0476456
0.0463583
0.0451337
0.043978
0.0428964
0.0418921
0.0409669
0.0401235
0.0393655
0.0386928
0.0381048
0.0376015
0.0371827
0.0368481
0.0365974
0.0364305
0.0363471
0.0529207
0.0529938
0.0531396
0.0533578
0.0536476
0.0540076
0.0544365
0.0549321
0.0554918
0.0561121
0.0567892
0.0575175
0.0582904
0.0591006
0.0599397
0.0607964
0.061658
0.0625116
0.0633413
0.0641297
0.0648592
0.0655107
0.0660643
0.0665015
0.0668041
0.0669563
0.0669447
0.0667598
0.0663959
0.0658518
0.0651316
0.0642446
0.0632037
0.0620259
0.0607308
0.0593402
0.0578769
0.0563635
0.0548222
0.0532734
0.051736
0.0502263
0.0487585
0.0473446
0.0459943
0.0447153
0.0435135
0.0423929
0.0413559
0.0404037
0.03954
0.0387666
0.0380817
0.0374844
0.0369742
0.0365504
0.0362124
0.0359594
0.0357911
0.0357071
0.0523788
0.0524556
0.0526091
0.0528389
0.0531446
0.0535252
0.0539797
0.0545063
0.0551031
0.055767
0.0564946
0.0572811
0.0581201
0.0590046
0.0599256
0.0608722
0.061831
0.0627885
0.0637269
0.064627
0.0654685
0.0662298
0.0668877
0.0674196
0.0678041
0.0680214
0.0680553
0.0678936
0.0675288
0.0669593
0.0661896
0.0652308
0.0640984
0.0628128
0.0613979
0.0598795
0.0582846
0.0566398
0.0549707
0.0533003
0.0516495
0.0500365
0.048476
0.0469804
0.0455593
0.0442199
0.0429673
0.0418043
0.0407321
0.0397521
0.0388683
0.0380792
0.0373822
0.0367761
0.0362595
0.0358314
0.0354905
0.0352357
0.0350665
0.034982
0.0517606
0.0518415
0.0520029
0.0522449
0.0525673
0.0529697
0.0534514
0.0540113
0.0546481
0.0553593
0.0561423
0.056993
0.0579058
0.0588733
0.0598867
0.060936
0.0620073
0.0630854
0.0641513
0.0651832
0.0661583
0.0670518
0.0678359
0.0684838
0.068969
0.0692675
0.0693587
0.069227
0.0688627
0.0682633
0.0674338
0.0663876
0.0651438
0.0637272
0.062167
0.0604944
0.0587418
0.0569405
0.0551204
0.0533078
0.0515259
0.0497943
0.0481289
0.0465419
0.0450425
0.0436373
0.04233
0.0411219
0.0400133
0.0390063
0.038103
0.0372986
0.0365905
0.0359767
0.035455
0.0350238
0.0346811
0.0344253
0.0342555
0.0341709
0.0510624
0.0511472
0.0513167
0.0515712
0.0519108
0.0523356
0.0528455
0.0534404
0.0541194
0.0548811
0.0557236
0.0566439
0.0576373
0.0586967
0.0598142
0.0609792
0.0621788
0.0633958
0.0646101
0.0657972
0.0669307
0.0679824
0.0689193
0.0697088
0.0703184
0.070718
0.0708815
0.0707889
0.0704271
0.0697925
0.0688908
0.0677383
0.0663588
0.064783
0.0630466
0.0611882
0.059247
0.0572603
0.0552627
0.0532848
0.0513523
0.0494864
0.0477034
0.0460155
0.0444312
0.0429555
0.0415901
0.0403354
0.0391919
0.03816
0.0372381
0.0364202
0.035703
0.0350835
0.0345588
0.0341261
0.033783
0.0335273
0.0333579
0.0332734
0.0502796
0.0503683
0.0505458
0.0508127
0.0511694
0.0516167
0.0521553
0.0527857
0.0535083
0.0543228
0.0552281
0.0562227
0.0573031
0.0584633
0.0596957
0.0609898
0.0623341
0.0637098
0.0650959
0.0664646
0.0677861
0.069027
0.0701487
0.0711112
0.0718745
0.0724005
0.0726559
0.0726143
0.0722585
0.0715827
0.0705938
0.0693118
0.0677664
0.0659964
0.0640464
0.0619642
0.0597974
0.0575913
0.0553862
0.0532173
0.0511131
0.0490962
0.0471833
0.0453858
0.0437109
0.0421611
0.0407362
0.0394362
0.0382608
0.0372059
0.0362678
0.0354393
0.0347163
0.0340941
0.033569
0.0331373
0.0327957
0.0325417
0.0323736
0.0322899
0.0494079
0.0495004
0.0496855
0.0499641
0.0503373
0.0508065
0.0513732
0.052039
0.0528055
0.0536737
0.0546441
0.0557163
0.0568889
0.0581575
0.0595152
0.0609532
0.0624593
0.0640151
0.0655984
0.0671791
0.0687227
0.0701898
0.0715354
0.07271
0.0736638
0.0743487
0.0747213
0.0747468
0.074402
0.0736783
0.0725835
0.0711428
0.0693941
0.0673864
0.0651765
0.062824
0.0603877
0.0579221
0.055475
0.0530866
0.0507881
0.0486034
0.0465487
0.0446341
0.0428641
0.0412384
0.0397553
0.0384143
0.0372103
0.036136
0.0351861
0.0343517
0.0336272
0.0330064
0.0324846
0.0320569
0.0317193
0.0314689
0.0313034
0.031221
0.0484435
0.0485393
0.0487311
0.0490204
0.0494088
0.0498984
0.0504917
0.0511915
0.0520009
0.0529224
0.0539584
0.0551104
0.056379
0.0577622
0.059255
0.0608503
0.0625359
0.0642948
0.0661037
0.0679304
0.0697356
0.0714735
0.0730906
0.0745259
0.0757172
0.0766028
0.077126
0.0772404
0.0769142
0.0761347
0.0749109
0.0732746
0.0712747
0.0689746
0.0664469
0.0637669
0.0610078
0.0582359
0.0555074
0.0528679
0.0503515
0.0479822
0.0457751
0.0437372
0.0418692
0.0401684
0.0386327
0.037257
0.0360299
0.0349423
0.033987
0.0331529
0.0324326
0.0318186
0.0313045
0.0308846
0.0305542
0.0303097
0.0301483
0.0300681
0.0473828
0.0474813
0.0476789
0.0479772
0.0483786
0.048886
0.0495032
0.0502342
0.0510838
0.0520565
0.0531568
0.0543885
0.055755
0.0572572
0.058893
0.0606576
0.0625405
0.0645265
0.066592
0.0687031
0.0708158
0.0728774
0.0748246
0.0765816
0.0780705
0.0792115
0.0799296
0.0801627
0.0798665
0.0790221
0.0776398
0.0757604
0.0734479
0.0707854
0.0678668
0.0647885
0.0616421
0.0585083
0.0554535
0.0525287
0.04977
0.0472006
0.0448324
0.042668
0.040703
0.0389332
0.0373535
0.0359503
0.034708
0.0336163
0.0326644
0.0318387
0.03113
0.0305291
0.0300283
0.0296209
0.0293013
0.0290655
0.0289101
0.0288329
0.046223
0.0463235
0.0465252
0.0468302
0.0472416
0.0477633
0.0484002
0.0491581
0.0500433
0.0510628
0.0522237
0.0535326
0.0549961
0.0566191
0.0584032
0.0603471
0.0624438
0.0646809
0.0670358
0.0694746
0.0719481
0.0743965
0.076745
0.0789008
0.0807647
0.082233
0.0832059
0.0835986
0.0833492
0.0824294
0.0808507
0.0786662
0.0759611
0.0728456
0.0694429
0.0658778
0.0622656
0.0587048
0.0552731
0.0520265
0.0490018
0.0462189
0.0436844
0.041394
0.0393391
0.0375121
0.0358993
0.0344792
0.0332338
0.0321503
0.0312126
0.0304053
0.0297171
0.0291372
0.0286564
0.0282669
0.0279625
0.0277385
0.0275913
0.0275183
0.0449621
0.0450635
0.0452673
0.045576
0.0459934
0.0465246
0.0471757
0.047954
0.0488682
0.0499276
0.0511423
0.0525225
0.0540787
0.0558205
0.0577546
0.0598848
0.0622092
0.0647199
0.0673977
0.0702103
0.0731056
0.0760168
0.0788547
0.0815069
0.0838462
0.0857373
0.0870465
0.0876563
0.0874789
0.0864717
0.0846471
0.0820753
0.0788716
0.0751843
0.0711776
0.067014
0.0628404
0.0587764
0.0549119
0.0513064
0.0479942
0.0449885
0.0422864
0.0398768
0.0377475
0.0358808
0.0342504
0.0328293
0.0315972
0.0305366
0.0296268
0.0288501
0.0281932
0.0276434
0.0271902
0.0268249
0.0265407
0.0263322
0.0261955
0.0261277
0.043599
0.0437001
0.0439034
0.0442121
0.0446306
0.045165
0.0458229
0.0466133
0.0475471
0.0486365
0.0498948
0.0513365
0.0529766
0.0548304
0.0569111
0.0592297
0.0617912
0.0645949
0.067628
0.0708634
0.0742494
0.0777125
0.0811478
0.0844199
0.0873649
0.0898071
0.0915644
0.0924727
0.0924055
0.0912979
0.0891619
0.0860925
0.0822479
0.0778318
0.0730654
0.0681627
0.0633101
0.0586548
0.0542975
0.0502976
0.0466811
0.0434502
0.0405891
0.0380787
0.0358985
0.0340129
0.0323858
0.0309856
0.0297881
0.028769
0.0279035
0.0271721
0.0265589
0.0260497
0.0256328
0.0252987
0.0250401
0.0248511
0.0247276
0.0246664
0.0421338
0.0422331
0.042433
0.0427371
0.0431506
0.0436807
0.0443362
0.0451281
0.0460694
0.0471754
0.0484631
0.0499515
0.0516611
0.0536139
0.0558311
0.0583327
0.0611338
0.0642441
0.0676614
0.071368
0.0753191
0.0794366
0.0836026
0.0876521
0.0913783
0.0945458
0.0969075
0.0982306
0.0983307
0.0971078
0.0945713
0.0908515
0.0861705
0.0808129
0.0750809
0.0692589
0.0635893
0.0582438
0.0533331
0.0489077
0.0449793
0.0415327
0.0385363
0.0359575
0.0337563
0.0318809
0.0302864
0.0289359
0.0277989
0.0268433
0.0260417
0.0253721
0.0248168
0.0243598
0.0239889
0.0236937
0.0234665
0.0233014
0.0231938
0.0231406
0.0405681
0.0406639
0.0408569
0.0411512
0.0415527
0.0420693
0.0427114
0.0434917
0.0444255
0.045531
0.0468292
0.048344
0.0501021
0.052133
0.0544676
0.0571369
0.0601699
0.0635902
0.0674117
0.0716327
0.0762227
0.0811093
0.0861693
0.0911996
0.0959255
0.100056
0.103242
0.10515
0.105507
0.104158
0.101103
0.0965244
0.0907402
0.0841553
0.0771901
0.0702235
0.063555
0.0574112
0.0518894
0.0470191
0.0427867
0.0391529
0.0360647
0.0334637
0.0312833
0.0294584
0.0279354
0.0266707
0.0256242
0.0247581
0.0240426
0.0234538
0.0229718
0.0225799
0.0222651
0.022017
0.0218275
0.0216906
0.0216019
0.0215581
0.0389053
0.0389956
0.0391779
0.0394565
0.0398377
0.0403306
0.0409464
0.0416997
0.0426077
0.0436917
0.0449765
0.0464911
0.0482687
0.0503474
0.0527688
0.0555774
0.0588204
0.0625391
0.0667702
0.0715369
0.0768349
0.0826145
0.0887606
0.0950347
0.1011
0.106532
0.110851
0.113588
0.114336
0.112843
0.10909
0.103339
0.0960561
0.0878287
0.0792552
0.0708404
0.063017
0.0559705
0.0497996
0.0444907
0.039992
0.0362265
0.0331095
0.0305455
0.0284431
0.0267226
0.0253203
0.0241837
0.0232626
0.0225158
0.0219114
0.0214237
0.0210317
0.0207183
0.0204704
0.0202777
0.0201323
0.0200282
0.0199612
0.0199283
0.0371508
0.0372335
0.0374007
0.037657
0.0380091
0.0384666
0.0390417
0.0397501
0.0406112
0.0416485
0.0428908
0.0443717
0.0461314
0.0482166
0.0506812
0.0535847
0.0569953
0.0609785
0.065601
0.0709223
0.0769794
0.0837663
0.0912033
0.0990785
0.106841
0.114016
0.119887
0.123813
0.125172
0.123543
0.118873
0.111539
0.102239
0.0918332
0.0811943
0.0709996
0.0617205
0.0536916
0.0468499
0.0411448
0.0364583
0.0326534
0.0295966
0.0271519
0.0252037
0.0236565
0.0224348
0.0214743
0.0207184
0.0201238
0.0196574
0.0192924
0.0190076
0.0187864
0.0186162
0.0184871
0.0183919
0.018325
0.0182824
0.0182618
0.035312
0.0353848
0.0355325
0.0357595
0.0360729
0.0364824
0.0370008
0.0376447
0.0384348
0.0393967
0.040562
0.0419691
0.0436639
0.0457022
0.0481502
0.0510842
0.0545947
0.0587787
0.0637408
0.0695882
0.0764175
0.0842968
0.0932107
0.103035
0.109008
0.118504
0.126482
0.132468
0.135518
0.134875
0.130263
0.122053
0.111132
0.0986661
0.0858304
0.0736506
0.0593441
0.0502386
0.0427654
0.0367645
0.0320283
0.0283235
0.0254527
0.0232391
0.021543
0.0202536
0.0192807
0.01855
0.0180029
0.0175957
0.0172951
0.0170745
0.0169141
0.0167984
0.0167161
0.0166584
0.0166191
0.0165933
0.0165779
0.0165707
0.0333987
0.0334594
0.0335829
0.0337735
0.034038
0.0343863
0.0348312
0.0353894
0.0360823
0.0369367
0.0379861
0.0392721
0.040846
0.042771
0.045125
0.0480011
0.0515131
0.0557955
0.0609981
0.067289
0.0748436
0.083835
0.0943808
0.10235
0.115508
0.127548
0.138743
0.147623
0.1526
0.152346
0.146327
0.135133
0.12027
0.103649
0.0870611
0.0718543
0.059476
0.0451664
0.037151
0.0310989
0.0265393
0.0231309
0.0206182
0.0187811
0.0174574
0.016522
0.0158716
0.0154289
0.0151365
0.0149524
0.0148449
0.0147898
0.0147698
0.0147718
0.0147866
0.014807
0.0148285
0.0148473
0.0148611
0.0148684
0.0314229
0.0314693
0.031564
0.031711
0.0319167
0.0321904
0.0325445
0.0329952
0.0335634
0.0342759
0.0351667
0.0362791
0.0376675
0.0394004
0.0415652
0.0442701
0.047651
0.0518783
0.0571592
0.0637322
0.0718822
0.081933
0.0944812
0.104434
0.120043
0.132944
0.148364
0.161507
0.170161
0.171953
0.165623
0.151817
0.132802
0.11152
0.0905776
0.0686269
0.0535927
0.0375868
0.0295423
0.023895
0.0198355
0.0169941
0.0150612
0.0137775
0.012965
0.012487
0.0122372
0.0121426
0.0121504
0.0122231
0.0123338
0.0124629
0.0125972
0.0127271
0.0128464
0.0129504
0.0130365
0.0131024
0.013147
0.0131696
0.0293991
0.0294291
0.0294906
0.0295872
0.0297245
0.0299109
0.0301573
0.0304787
0.0308944
0.0314298
0.0321175
0.0329999
0.0341317
0.0355834
0.0374473
0.0398422
0.0429223
0.0468877
0.051999
0.0585746
0.0670172
0.0777938
0.0919515
0.104426
0.123683
0.14201
0.163585
0.183594
0.198005
0.202271
0.193751
0.173516
0.14591
0.116239
0.0886324
0.0615284
0.0453858
0.0270186
0.0197206
0.014979
0.0118194
0.00988682
0.00879752
0.00826797
0.0081141
0.00819913
0.00842768
0.00873794
0.00908681
0.00944568
0.00979547
0.0101237
0.0104228
0.0106879
0.0109167
0.0111077
0.0112605
0.011375
0.0114514
0.0114896
0.0273438
0.0273555
0.02738
0.0274202
0.0274805
0.0275678
0.027691
0.0278628
0.0280997
0.0284238
0.028864
0.0294592
0.0302603
0.0313351
0.0327744
0.0346994
0.0372726
0.0407116
0.0453154
0.0514752
0.0596983
0.0706126
0.085734
0.101082
0.124207
0.148464
0.179161
0.210207
0.235042
0.244618
0.232844
0.201727
0.160283
0.118437
0.0824742
0.0495374
0.0319279
0.0130844
0.00740068
0.00421561
0.0024818
0.00186696
0.00191432
0.00234512
0.00299135
0.00373857
0.00451505
0.00527803
0.00600032
0.00666701
0.00727023
0.0078067
0.00827625
0.00867998
0.0090202
0.00929909
0.00951919
0.00968241
0.00979045
0.00984424
0.0252755
0.0252674
0.0252518
0.0252306
0.0252069
0.0251852
0.0251721
0.0251767
0.0252114
0.0252933
0.0254452
0.0256989
0.0260972
0.0266989
0.0275854
0.0288684
0.0307038
0.0333076
0.0369898
0.0421822
0.0494646
0.0596207
0.0745143
0.0924707
0.118967
0.150344
0.19319
0.242036
0.286519
0.307938
0.290701
0.238849
0.173237
0.113039
0.0671916
0.0292206
0.0121524
-0.00491009
-0.00770626
-0.00839933
-0.00804594
-0.00689357
-0.0054204
-0.00384179
-0.00227201
-0.000781469
0.000594792
0.00184231
0.00295688
0.00394184
0.00480363
0.00555012
0.0061899
0.00673093
0.00718079
0.00754573
0.00783133
0.00804184
0.00818058
0.00824945
0.0232144
0.0231853
0.0231275
0.0230415
0.0229286
0.0227909
0.0226316
0.0224556
0.0222697
0.0220842
0.0219138
0.0217792
0.0217107
0.0217514
0.0219633
0.0224359
0.0232991
0.0247386
0.0270373
0.0306164
0.0360449
0.0441993
0.0569612
0.0762279
0.103705
0.141476
0.198445
0.274693
0.358163
0.408824
0.381517
0.285845
0.17644
0.0909486
0.036025
-0.00313267
-0.0154852
-0.0273296
-0.0255141
-0.0225658
-0.019422
-0.0160857
-0.0129465
-0.0100754
-0.00749708
-0.00521613
-0.00321689
-0.00147594
3.15565e-05
0.00133089
0.00244499
0.00339441
0.0041973
0.00486896
0.00542253
0.00586847
0.00621555
0.0064703
0.00663771
0.00672063
0.0211814
0.0211311
0.0210301
0.0208776
0.020673
0.0204155
0.0201045
0.0197397
0.0193217
0.0188524
0.0183356
0.0177788
0.0171947
0.0166043
0.0160412
0.0155582
0.0152384
0.0152061
0.0156644
0.0169537
0.0195098
0.0241632
0.0322659
0.0502705
0.0736665
0.113201
0.179973
0.291118
0.452138
0.584491
0.534836
0.333113
0.145405
0.0332762
-0.0209184
-0.0505142
-0.051647
-0.0534492
-0.0451838
-0.0375335
-0.0310446
-0.0252417
-0.0202969
-0.0160686
-0.0124616
-0.00939424
-0.00678782
-0.00457401
-0.00269519
-0.00110236
0.000244942
0.00138037
0.00233178
0.0031217
0.00376872
0.00428741
0.00468955
0.00498386
0.00517686
0.00527233
0.0191984
0.0191269
0.0189831
0.0187646
0.0184687
0.0180916
0.0176285
0.0170735
0.0164202
0.0156611
0.0147879
0.0137921
0.0126658
0.0114027
0.0100002
0.00846209
0.00680665
0.00506637
0.00331298
0.00172123
0.000448408
0.000140074
0.000942798
0.0139523
0.0256489
0.0561071
0.111476
0.237551
0.526011
0.925082
0.808277
0.311272
0.0150248
-0.0896374
-0.112242
-0.112925
-0.0944838
-0.0808695
-0.064938
-0.0520425
-0.0420228
-0.0337222
-0.0270062
-0.021481
-0.0169155
-0.0131302
-0.00997887
-0.00734656
-0.00514287
-0.00329565
-0.00174771
-0.000453263
0.000624479
0.00151468
0.0022407
0.00282078
0.00326931
0.00359692
0.00381145
0.00391747
0.0172868
0.0171951
0.0170102
0.0167285
0.0163449
0.0158526
0.0152426
0.0145034
0.0136212
0.0125787
0.011355
0.00992482
0.00825779
0.00631733
0.00406056
0.00143489
-0.00161845
-0.00517744
-0.00933918
-0.0141595
-0.0198977
-0.0261393
-0.0344354
-0.0300602
-0.0372427
-0.0312653
-0.0280083
0.00161561
0.212778
1.45522
1.21093
-0.168036
-0.343281
-0.2995
-0.235019
-0.181952
-0.137725
-0.105469
-0.0821572
-0.0643936
-0.0512386
-0.0407763
-0.0325589
-0.0259538
-0.0206054
-0.0162424
-0.0126577
-0.00969574
-0.00723812
-0.00519322
-0.00348997
-0.00207274
-0.000897598
6.98184e-05
0.000856692
0.00148405
0.00196834
0.00232165
0.00255282
0.002667
0.0154673
0.0153571
0.0151344
0.0147943
0.0143298
0.0137311
0.0129853
0.0120756
0.0109809
0.00967476
0.00812398
0.00628703
0.00411168
0.00153188
-0.00153584
-0.0052004
-0.00959884
-0.0149215
-0.0214396
-0.0294534
-0.0397171
-0.0519318
-0.0694952
-0.075569
-0.103089
-0.128322
-0.195785
-0.357858
-0.944249
-2.22906
-0.915959
-0.542902
-0.354854
-0.238753
-0.171373
-0.122218
-0.0938651
-0.072772
-0.0575596
-0.0456748
-0.0364735
-0.0291636
-0.0233097
-0.0185759
-0.014714
-0.0115416
-0.00892188
-0.00675067
-0.00494796
-0.00345174
-0.00221366
-0.00119606
-0.000369384
0.000289097
0.000797054
0.00116745
0.00140974
0.00152944
0.0137591
0.0136325
0.0133766
0.0129853
0.0124498
0.0117578
0.0108928
0.00983347
0.00855248
0.00701533
0.00517803
0.00298489
0.000364828
-0.00277398
-0.0065495
-0.0111199
-0.0166892
-0.0235422
-0.0320952
-0.0428348
-0.0570195
-0.0741943
-0.0994236
-0.115042
-0.157526
-0.205439
-0.303143
-0.464296
-0.634936
6.06604
-1.93528
-1.15264
-0.666492
-0.41606
-0.261935
-0.185195
-0.126993
-0.0977058
-0.07579
-0.0601408
-0.0478817
-0.038402
-0.0308809
-0.0248735
-0.0200235
-0.016072
-0.0128296
-0.0101542
-0.00793813
-0.00609885
-0.00457249
-0.00330958
-0.00227146
-0.00142793
-0.000755875
-0.000237327
0.000140842
0.000388264
0.000510571
0.0121789
0.0120388
0.0117555
0.011322
0.0107282
0.00995954
0.00899695
0.00781544
0.00638299
0.00465869
0.0025905
0.000111983
-0.002862
-0.00644179
-0.0107701
-0.0160398
-0.0225001
-0.0304964
-0.0405368
-0.053179
-0.0701481
-0.0905235
-0.120726
-0.143096
-0.192988
-0.252248
-0.353864
-0.488861
-0.555615
0.368694
-0.960841
-2.06939
-1.01771
-0.604244
-0.389354
-0.242733
-0.175147
-0.1188
-0.0930794
-0.073078
-0.0587407
-0.047234
-0.0382356
-0.0310338
-0.0252478
-0.0205511
-0.0167076
-0.013542
-0.0109221
-0.00874582
-0.00693502
-0.00542895
-0.00418022
-0.00315194
-0.00231502
-0.00164735
-0.00113159
-0.000755149
-0.000508711
-0.000386789
0.0107407
0.0105904
0.0102865
0.0098214
0.00918389
0.00835833
0.00732367
0.00605261
0.00451006
0.00265129
0.000419215
-0.00225871
-0.00547542
-0.00935132
-0.0140402
-0.0197508
-0.0267511
-0.0354049
-0.0462533
-0.0597742
-0.0780899
-0.0995783
-0.131642
-0.157265
-0.207452
-0.270291
-0.370919
-0.529542
-0.856411
0.126327
-0.775898
-0.982367
-0.577048
-0.411085
-0.29582
-0.192011
-0.146185
-0.100517
-0.0815505
-0.0654978
-0.0538371
-0.0440078
-0.0361431
-0.0297304
-0.0245032
-0.0202062
-0.0166535
-0.0137024
-0.0112422
-0.00918589
-0.00746534
-0.00602758
-0.00483042
-0.00384097
-0.00303319
-0.00238706
-0.00188687
-0.00152121
-0.00128157
-0.0011629
0.00945497
0.00929822
0.00898115
0.00849596
0.00783103
0.00697017
0.00589148
0.00456683
0.00295988
0.00102464
-0.00129726
-0.00407998
-0.00741721
-0.0114299
-0.0162696
-0.0221408
-0.0293013
-0.0380923
-0.0490383
-0.062391
-0.0805351
-0.101013
-0.131743
-0.15703
-0.200829
-0.259863
-0.343688
-0.495382
-0.70796
-0.27208
-0.0157539
0.0348978
-0.148775
-0.203847
-0.186462
-0.131918
-0.109082
-0.077451
-0.0661332
-0.0547935
-0.0464557
-0.0388312
-0.0325224
-0.0272295
-0.0228114
-0.0191057
-0.0159916
-0.0133691
-0.0111571
-0.0092894
-0.00771294
-0.00638556
-0.00527313
-0.00434847
-0.00359003
-0.00298093
-0.00250793
-0.00216127
-0.00193372
-0.00182089
0.00832863
0.00816918
0.00784671
0.00735352
0.0066781
0.00580437
0.00471089
0.00336982
0.00174572
-0.000206139
-0.00254207
-0.00533283
-0.0086668
-0.012657
-0.0174404
-0.0231989
-0.0301565
-0.0385989
-0.0489971
-0.0612789
-0.0778771
-0.095503
-0.12205
-0.144041
-0.176469
-0.221447
-0.267209
-0.350102
-0.390253
-0.222542
0.209815
0.516279
0.0561034
-0.0748945
-0.103093
-0.0810068
-0.0739544
-0.0547235
-0.0499286
-0.0428932
-0.0378035
-0.0324868
-0.0278916
-0.0238795
-0.0204104
-0.017416
-0.0148402
-0.0126276
-0.0107294
-0.00910295
-0.00771281
-0.00652954
-0.00552872
-0.00469027
-0.00399794
-0.00343894
-0.00300291
-0.00268229
-0.00247132
-0.00236658
0.00736451
0.00720615
0.00688604
0.00639685
0.00572771
0.00486347
0.0037839
0.00246304
0.000867872
-0.00104263
-0.00331958
-0.00602664
-0.0092417
-0.0130622
-0.0176028
-0.0230124
-0.0294664
-0.037171
-0.0465106
-0.0570828
-0.0711547
-0.084813
-0.105346
-0.1222
-0.140396
-0.164641
-0.162106
-0.179335
-0.208407
-0.522514
-0.259707
0.00444256
-0.0232019
-0.0548545
-0.0632023
-0.0464562
-0.045693
-0.0351536
-0.0349359
-0.0312405
-0.028894
-0.0256966
-0.0227617
-0.0200433
-0.0175593
-0.0153252
-0.0133369
-0.0115797
-0.010035
-0.00868371
-0.00750837
-0.00649299
-0.00562323
-0.00488674
-0.00427324
-0.00377426
-0.00338276
-0.00309367
-0.00290283
-0.00280794
0.00656157
0.00640793
0.00609752
0.00562377
0.00497682
0.00414308
0.00310444
0.00183784
0.000314295
-0.00150192
-0.00365439
-0.00619673
-0.00919199
-0.0127197
-0.0168714
-0.0217561
-0.0274816
-0.034174
-0.0421386
-0.0507107
-0.0618689
-0.0714125
-0.0855675
-0.0967585
-0.100649
-0.100897
-0.044803
0.00303818
-0.0698591
-1.19443
-2.58722
-0.670748
-0.186996
-0.0853946
-0.048083
-0.0237153
-0.0237542
-0.0191325
-0.0218004
-0.0205506
-0.020368
-0.0189956
-0.0175523
-0.0160405
-0.0145014
-0.0130181
-0.0116222
-0.0103319
-0.00915523
-0.0080943
-0.00714814
-0.00631354
-0.00558623
-0.00496149
-0.00443487
-0.00400245
-0.00366065
-0.00340681
-0.00323857
-0.00315473
0.00591502
0.00576937
0.00547539
0.00502738
0.004417
0.00363261
0.00265893
0.00147668
6.17785e-05
-0.00161475
-0.00358733
-0.00589826
-0.00859542
-0.0117412
-0.0153955
-0.019631
-0.0244928
-0.0300401
-0.0365161
-0.0431291
-0.0515218
-0.0575909
-0.0662358
-0.0729186
-0.066174
-0.0444369
0.0623369
0.234241
0.377758
-0.583277
-1.07319
-0.55396
-0.220754
-0.0799707
-0.0268998
-0.00351111
-0.00508362
-0.00555619
-0.0102482
-0.0109797
-0.0125274
-0.0127063
-0.012554
-0.01212
-0.0114401
-0.0106584
-0.00982528
-0.00898596
-0.00817004
-0.0073975
-0.00668162
-0.00603054
-0.00544904
-0.00493963
-0.00450336
-0.00414062
-0.00385105
-0.00363442
-0.00349009
-0.00341799
0.00541666
0.00528185
0.00501007
0.00459672
0.0040351
0.00331604
0.00242745
0.0013544
7.84377e-05
-0.00142176
-0.00317128
-0.00520292
-0.00754808
-0.0102475
-0.0133338
-0.0168534
-0.0208003
-0.0251901
-0.0302144
-0.0351075
-0.0411782
-0.0448277
-0.0495307
-0.0539665
-0.0433809
-0.0115259
0.110645
0.357763
0.945366
2.48425
1.51664
-0.146797
-0.0828048
-0.00494921
0.0179159
0.0206133
0.0131305
0.00654555
0.000117732
-0.00247634
-0.00549909
-0.00701744
-0.00796089
-0.00846227
-0.00853679
-0.0083835
-0.00805841
-0.00763252
-0.00715243
-0.00665203
-0.00615598
-0.00568199
-0.00524253
-0.00484646
-0.00449959
-0.00420622
-0.00396897
-0.0037898
-0.00366963
-0.00360938
0.00505531
0.00493365
0.00468876
0.00431721
0.00381414
0.00317296
0.00238509
0.00144027
0.000326011
-0.000971791
-0.00247038
-0.00419023
-0.00614661
-0.00836197
-0.0108464
-0.0136308
-0.0166686
-0.0199584
-0.0236348
-0.0270814
-0.0312868
-0.0334912
-0.0357415
-0.0404932
-0.033517
-0.00985348
0.062561
0.203125
0.62999
2.96625
2.49784
0.345152
0.152697
0.117392
0.0819057
0.0484368
0.0312658
0.0173393
0.00928978
0.00487579
0.000602409
-0.00207399
-0.00392198
-0.00520644
-0.00591414
-0.00629893
-0.00641291
-0.00634843
-0.00616573
-0.00590981
-0.0056138
-0.0053028
-0.00499549
-0.00470583
-0.00444363
-0.00421643
-0.00402937
-0.00388628
-0.00378946
-0.0037407
0.00481741
0.00471063
0.00449608
0.00417159
0.00373413
0.00317977
0.00250361
0.00169998
0.000761968
-0.000318499
-0.00154906
-0.00293855
-0.00448839
-0.00620649
-0.00808302
-0.0101422
-0.0123028
-0.014571
-0.0169984
-0.0191969
-0.0218128
-0.0231338
-0.0237704
-0.0307009
-0.0323668
-0.0315771
-0.0510613
-0.107922
-0.264274
-0.676987
1.23683
0.669649
0.373101
0.241899
0.148234
0.0753555
0.0475998
0.0262596
0.0168795
0.0108258
0.00559706
0.00199024
-0.000560636
-0.00246397
-0.00366915
-0.00448729
-0.00495889
-0.00519543
-0.00526233
-0.00521456
-0.00509145
-0.0049234
-0.0047334
-0.00453919
-0.00435376
-0.00418705
-0.00404621
-0.00393652
-0.00386141
-0.00382336
0.00468762
0.00459684
0.00441483
0.00414068
0.0037732
0.00331118
0.00275305
0.00209684
0.00134124
0.000485111
-0.000470534
-0.00152503
-0.00266796
-0.00389479
-0.00517656
-0.00653629
-0.00785829
-0.00917456
-0.0104157
-0.0114545
-0.0125167
-0.0130487
-0.0121155
-0.0217547
-0.0331009
-0.0581108
-0.160615
-0.344072
-0.714459
-2.28151
-0.624644
0.74953
0.511886
0.332436
0.200044
0.0962757
0.05994
0.032513
0.0223829
0.0150827
0.00929266
0.00504014
0.00202423
-0.000324238
-0.00188242
-0.00301798
-0.00375151
-0.00421858
-0.00448212
-0.00460067
-0.00461824
-0.00456871
-0.00447767
-0.00436514
-0.00424616
-0.00413231
-0.00403217
-0.00395216
-0.00389642
-0.00386795
0.00464948
0.00457519
0.00442671
0.00420425
0.00390847
0.00354056
0.00310166
0.00259384
0.00202088
0.00138791
0.00070365
-2.35772e-05
-0.000773002
-0.00152949
-0.00224397
-0.00294067
-0.00346261
-0.00388011
-0.00397024
-0.00387319
-0.00327765
-0.0028156
0.000201118
-0.0113659
-0.0300732
-0.0729028
-0.212545
-0.42299
-0.742158
-1.67642
-1.06071
0.749641
0.567522
0.376987
0.228919
0.108202
0.0668787
0.0355545
0.0254361
0.0174443
0.0115567
0.00698306
0.00376526
0.00116783
-0.000587915
-0.00192308
-0.00282618
-0.00344942
-0.00385179
-0.00409263
-0.00421588
-0.00425787
-0.00424511
-0.00419851
-0.00413403
-0.00406417
-0.00399829
-0.0039434
-0.0039042
-0.00388393
0.00468601
0.00462814
0.00451299
0.00434185
0.00411692
0.00384134
0.00351904
0.00315573
0.00275958
0.00234094
0.00191506
0.00149694
0.00111642
0.000797235
0.00060926
0.000526648
0.000757043
0.0011762
0.00218175
0.0033844
0.00573338
0.00743471
0.0131321
0.0012901
-0.0205626
-0.0694586
-0.209287
-0.390731
-0.620816
-1.06927
-0.340745
0.796567
0.561084
0.379311
0.23423
0.110687
0.0681357
0.0353136
0.0259661
0.0178782
0.0123625
0.00779785
0.00464192