/*--------------------------------*- C++ -*----------------------------------*\
  =========                 |
  \\      /  F ield         | OpenFOAM: The Open Source CFD Toolbox
   \\    /   O peration     | Website:  https://openfoam.org
    \\  /    A nd           | Version:  12
     \\/     M anipulation  |
\*---------------------------------------------------------------------------*/
FoamFile
{
    format      ascii;
    class       surfaceScalarField;
    location    "120";
    object      phi;
}
// * * * * * * * * * * * * * * * * * * * * * * * * * * * * * * * * * * * * * //

dimensions      [0 3 -1 0 0 0 0];

internalField   nonuniform List<scalar> 
32440
(
-7.22747e-07
0.0399887
5.53733e-07
0.0399887
-2.16701e-06
0.0399907
-8.83284e-07
0.0399887
-3.59342e-06
0.0399907
-2.29586e-06
0.0399987
-2.98869e-06
0.0400107
-3.66927e-06
0.0400107
-2.33467e-06
0.0400107
-9.82167e-07
0.0400106
3.90522e-07
0.0400106
-4.21284e-06
0.0400046
-4.78735e-06
0.0400006
-5.32992e-06
0.0400005
-5.83649e-06
0.0400005
-6.30295e-06
0.0400005
-6.72533e-06
0.0400004
-7.09996e-06
0.0400004
-7.42354e-06
0.0400003
-7.69305e-06
0.0400003
-7.90609e-06
0.0400002
-8.0608e-06
0.0400002
-8.15672e-06
0.0400001
-8.19409e-06
0.04
-8.17389e-06
0.04
-8.09802e-06
0.0399999
-7.96904e-06
0.0399999
-7.79091e-06
0.0399998
-9.16781e-06
0.0400014
-1.45646e-05
0.0400054
-1.58037e-05
0.0400012
-1.56746e-05
0.0399999
-1.53215e-05
0.0399996
-1.49495e-05
0.0399996
-1.35635e-05
0.0399986
-1.31674e-05
0.0399996
-1.27652e-05
0.0399996
-1.23597e-05
0.0399996
-1.19533e-05
0.0399996
-1.15478e-05
0.0399996
-1.11445e-05
0.0399996
-1.07441e-05
0.0399996
-1.03473e-05
0.0399996
-9.95413e-06
0.0399996
-9.56517e-06
0.0399996
-9.17999e-06
0.0399996
-8.79828e-06
0.0399996
-8.41942e-06
0.0399996
-8.04342e-06
0.0399996
-7.66925e-06
0.0399996
-7.29688e-06
0.0399996
-8.9258e-06
0.0400016
-1.45557e-05
0.0400056
-8.18839e-06
0.0400056
-3.82268e-06
0.0400076
-3.4573e-06
0.0400096
-1.09216e-06
0.0399976
-7.2705e-07
0.0399876
-3.61682e-07
0.0399896
0.0399876
-1.2277e-06
0.0399899
-2.45415e-06
0.0399899
-3.66813e-06
0.0399919
-4.86324e-06
0.0399899
-4.03281e-06
0.0399899
-3.16997e-06
0.0399978
-2.26721e-06
0.0400098
-3.31633e-06
0.0400117
-2.30857e-06
0.0400097
7.64774e-07
0.0400076
3.91378e-06
0.0400075
-4.85324e-06
0.0400134
-9.52408e-06
0.0400052
-1.00887e-05
0.0400011
-1.05387e-05
0.040001
-1.08643e-05
0.0400008
-1.10576e-05
0.0400006
-1.11118e-05
0.0400004
-1.10229e-05
0.0400002
-1.07872e-05
0.04
-1.04041e-05
0.0399998
-9.87709e-06
0.0399996
-9.21282e-06
0.0399994
-8.42036e-06
0.0399992
-7.51191e-06
0.0399991
-6.30282e-06
0.0399987
-5.21139e-06
0.0399988
-4.4578e-06
0.0399991
-4.6619e-06
0.0400016
-9.15152e-06
0.0400099
-9.42982e-06
0.0400015
-8.24001e-06
0.0399987
-7.09574e-06
0.0399985
-6.01465e-06
0.0399985
-6.21202e-06
0.0399988
-5.29827e-06
0.0399987
-4.48415e-06
0.0399988
-3.77371e-06
0.0399989
-3.17067e-06
0.039999
-2.67459e-06
0.0399991
-2.28296e-06
0.0399992
-1.9913e-06
0.0399993
-1.79383e-06
0.0399994
-1.68254e-06
0.0399995
3.48589e-07
0.0399976
3.08623e-07
0.0399997
2.05769e-07
0.0399997
4.72736e-08
0.0399998
-1.5891e-07
0.0399998
-4.04704e-07
0.0399999
-2.68541e-06
0.0400019
-6.99223e-06
0.0400059
-9.32264e-06
0.040008
-7.67499e-06
0.040004
-6.04245e-06
0.040006
-4.42122e-06
0.040008
1.19181e-06
0.039992
-1.20057e-06
0.03999
4.03759e-07
0.039988
0.039988
-1.23714e-06
0.0399912
-2.46718e-06
0.0399912
-1.67462e-06
0.0399911
-2.84794e-06
0.0399911
-5.97508e-06
0.039993
-1.04303e-06
0.0399929
-2.04006e-06
0.0400108
-9.50921e-07
0.0400106
2.38073e-07
0.0400085
1.54293e-06
0.0400063
2.97758e-06
0.040006
-5.44167e-06
0.0400218
-7.69906e-06
0.0400075
-7.77952e-06
0.0400012
-7.6677e-06
0.0400008
-7.35229e-06
0.0400005
-6.82263e-06
0.0400001
-6.07121e-06
0.0399997
-1.09571e-06
0.0399953
-3.89668e-06
0.0400028
-2.47575e-06
0.0399984
-8.44043e-07
0.039998
9.81116e-07
0.0399976
2.97767e-06
0.0399972
5.11876e-06
0.0399969
7.37188e-06
0.0399965
9.7007e-06
0.0399964
1.20639e-05
0.0399967
1.28211e-05
0.0400008
9.44336e-06
0.0400133
1.01485e-05
0.0400008
1.20352e-05
0.0399968
1.39555e-05
0.0399966
1.56787e-05
0.0399968
1.81796e-05
0.0399963
1.94377e-05
0.0399974
2.04417e-05
0.0399978
2.11869e-05
0.0399981
2.16685e-05
0.0399985
2.1894e-05
0.0399989
2.18729e-05
0.0399992
2.1618e-05
0.0399996
2.11472e-05
0.0399999
2.0473e-05
0.0400002
1.76191e-05
0.0400004
1.66029e-05
0.0400007
1.5446e-05
0.0400009
1.61635e-05
0.0399991
1.47742e-05
0.0400012
1.12947e-05
0.0400034
7.73973e-06
0.0400055
-3.87115e-06
0.0400175
4.57082e-07
0.0400036
7.42789e-07
0.0400037
9.96169e-07
0.0400057
3.22419e-06
0.0400058
5.43434e-06
0.0399898
3.63143e-06
0.0399918
1.82023e-06
0.0399898
0.0399899
-1.2801e-06
0.0399925
-2.54761e-06
0.0399924
-3.78269e-06
0.0399924
-4.96858e-06
0.0399923
-4.08774e-06
0.0399921
-5.12242e-06
0.0399939
-5.32432e-08
0.0400057
1.13798e-06
0.0400094
2.47332e-06
0.0400071
1.97309e-06
0.0400068
1.66021e-06
0.0400064
-2.4469e-06
0.0400259
-6.32609e-06
0.0400114
-7.95372e-06
0.0400028
-7.31164e-06
0.0400002
-4.38277e-06
0.0399975
-1.15429e-06
0.0399969
1.0382e-05
0.0399881
1.82287e-05
0.0399874
8.38111e-06
0.0400127
4.83635e-06
0.040002
7.57339e-06
0.0399953
1.0567e-05
0.0399946
1.37806e-05
0.039994
1.71734e-05
0.0399935
2.06941e-05
0.0399929
2.42862e-05
0.0399929
2.76904e-05
0.0399933
2.9839e-05
0.0399987
2.75926e-05
0.0400155
2.93299e-05
0.0399991
3.21474e-05
0.039994
3.50708e-05
0.0399937
3.74586e-05
0.0399944
3.8274e-05
0.0399955
3.98912e-05
0.0399958
4.10941e-05
0.0399966
4.18772e-05
0.0399974
4.42412e-05
0.0399961
4.41965e-05
0.0399989
4.37603e-05
0.0399997
4.29592e-05
0.0400004
4.18108e-05
0.040001
4.03524e-05
0.0400016
3.8615e-05
0.0400022
3.66242e-05
0.0400027
3.4412e-05
0.0400031
3.00132e-05
0.0400035
2.945e-05
0.0400018
2.67498e-05
0.0400061
1.39396e-05
0.0400183
1.10358e-05
0.0400205
8.04258e-06
0.0400066
6.98838e-06
0.0400048
5.88723e-06
0.0400068
1.07506e-05
0.0400009
7.58582e-06
0.039993
6.40226e-06
0.039993
3.20617e-06
0.039993
0.0399931
-1.34969e-06
0.0399938
-2.68174e-06
0.0399938
-3.97164e-06
0.0399937
-5.19757e-06
0.0399935
-6.33751e-06
0.0399933
-5.36747e-06
0.039993
1.73715e-06
0.0399986
1.00097e-06
0.0400102
4.5057e-07
0.0400077
2.11449e-06
0.0400051
4.02088e-06
0.0400045
4.19675e-06
0.0400257
-3.33309e-06
0.0400189
-4.53728e-06
0.040004
-3.39128e-06
0.0399991
-1.87408e-06
0.039996
6.0312e-06
0.039989
2.23376e-05
0.0399718
1.90483e-05
0.0399907
1.21547e-05
0.0400196
1.16523e-05
0.0400025
1.551e-05
0.0399914
1.96942e-05
0.0399904
2.41577e-05
0.0399896
2.88398e-05
0.0399889
3.36735e-05
0.0399881
3.85811e-05
0.0399879
4.34754e-05
0.0399884
4.66773e-05
0.0399955
4.5607e-05
0.0400166
4.84383e-05
0.0399962
5.24256e-05
0.03999
5.57929e-05
0.0399903
5.90819e-05
0.0399911
6.24373e-05
0.0399921
6.44301e-05
0.0399938
6.58398e-05
0.0399952
6.6656e-05
0.0399965
6.48977e-05
0.0399979
6.45688e-05
0.0399992
6.37017e-05
0.0400005
6.433e-05
0.0399997
6.24901e-05
0.0400029
6.0229e-05
0.0400039
5.75799e-05
0.0400048
5.45965e-05
0.0400056
5.13219e-05
0.0400064
4.77868e-05
0.040007
4.2041e-05
0.0400075
3.01151e-05
0.040018
1.40577e-05
0.0400343
2.18475e-05
0.0400127
1.9539e-05
0.0400089
1.51538e-05
0.0400091
1.47078e-05
0.0400073
1.82163e-05
0.0399974
1.36916e-05
0.0399975
9.14143e-06
0.0399976
4.57611e-06
0.0399976
0.0399976
-1.43894e-06
0.0399953
-8.55369e-07
0.0399932
-2.22082e-06
0.039995
-3.50864e-06
0.0399948
-4.69144e-06
0.0399944
-5.74066e-06
0.039994
-2.62613e-06
0.0399955
2.68291e-06
0.0400049
2.2186e-06
0.0400081
2.0154e-06
0.0400053
4.1084e-06
0.0400024
2.25349e-05
0.0400073
5.32833e-06
0.0400361
-1.48e-06
0.0400108
-1.85554e-06
0.0399994
2.22858e-06
0.0399919
1.27949e-05
0.0399784
1.98594e-05
0.0399648
1.9427e-05
0.0399911
1.54926e-05
0.0400235
1.80445e-05
0.0399999
2.30482e-05
0.0399864
2.846e-05
0.039985
3.42191e-05
0.0399838
4.02472e-05
0.0399828
4.64596e-05
0.0399819
5.29531e-05
0.0399815
5.88225e-05
0.0399825
6.35456e-05
0.0399907
6.37363e-05
0.0400164
6.77291e-05
0.0399923
7.25592e-05
0.0399852
7.72267e-05
0.0399856
8.08504e-05
0.0399875
8.29783e-05
0.03999
8.53709e-05
0.0399914
8.89945e-05
0.0399915
8.985e-05
0.0399957
8.995e-05
0.0399978
8.93165e-05
0.0399999
8.79947e-05
0.0400018
8.40143e-05
0.0400037
8.14502e-05
0.0400054
8.03386e-05
0.040005
7.67549e-05
0.0400084
7.27431e-05
0.0400097
6.83654e-05
0.0400107
6.36726e-05
0.0400117
5.67158e-05
0.0400145
4.15505e-05
0.0400331
3.82053e-05
0.0400377
3.4682e-05
0.0400162
2.90467e-05
0.0400146
2.53214e-05
0.0400129
2.95304e-05
0.0400031
2.36809e-05
0.0400033
1.77925e-05
0.0400034
1.18767e-05
0.0400035
5.94381e-06
0.0400035
0.0400036
-1.55582e-06
0.0399968
-3.0849e-06
0.0399947
-4.55444e-06
0.0399965
-5.93375e-06
0.0399962
-7.19111e-06
0.0399957
-8.2931e-06
0.0399951
-7.20435e-06
0.0399944
1.13124e-07
0.0399976
1.69618e-06
0.0400066
3.58614e-06
0.0400034
3.82586e-06
0.0400021
8.46102e-06
0.0400027
1.15314e-05
0.040033
-9.25625e-07
0.0400233
1.13585e-06
0.0399974
9.74999e-06
0.0399833
3.29471e-05
0.0399552
2.07516e-05
0.039977
2.11664e-05
0.0399907
2.01935e-05
0.0400245
2.38159e-05
0.0399963
2.99951e-05
0.0399802
3.66786e-05
0.0399783
4.37897e-05
0.0399767
5.12424e-05
0.0399754
5.91183e-05
0.039974
6.66953e-05
0.0399739
7.44305e-05
0.0399748
8.03881e-05
0.0399848
8.19459e-05
0.0400148
8.71882e-05
0.039987
9.3352e-05
0.039979
9.85941e-05
0.0399804
0.000103425
0.0399827
0.000107971
0.0399855
0.000110782
0.0399886
0.000110633
0.0399917
0.000111521
0.0399948
0.000111467
0.0399979
0.000112505
0.0399988
0.000110687
0.0400037
0.000108071
0.0400063
0.000104729
0.0400088
9.8739e-05
0.040011
9.61597e-05
0.040011
9.10841e-05
0.0400147
8.55663e-05
0.0400163
7.96769e-05
0.0400176
6.14843e-05
0.0400327
3.90726e-05
0.0400556
5.03908e-05
0.0400264
4.55404e-05
0.040021
4.05696e-05
0.0400195
4.14988e-05
0.0400119
3.4347e-05
0.0400102
2.71368e-05
0.0400105
1.98852e-05
0.0400106
1.26048e-05
0.0400108
7.30818e-06
0.0400088
0.0400109
2.90513e-07
0.0399965
-3.38859e-06
0.0399984
-5.00071e-06
0.0399981
-4.51141e-06
0.0399957
-5.88526e-06
0.0399971
-7.08401e-06
0.0399963
-8.06727e-06
0.0399954
-4.79284e-06
0.0399943
7.84991e-07
0.040001
7.13079e-07
0.0400035
1.04181e-06
0.0400018
5.82253e-06
0.0399979
3.11091e-05
0.0400078
1.0957e-05
0.0400434
-5.90742e-07
0.0400089
6.50767e-06
0.0399762
1.82961e-05
0.0399434
2.08051e-05
0.0399745
2.40511e-05
0.0399875
2.40383e-05
0.0400245
2.87427e-05
0.0399916
3.61327e-05
0.0399728
4.41381e-05
0.0399703
5.26819e-05
0.0399682
6.16453e-05
0.0399664
7.08911e-05
0.0399648
8.02714e-05
0.0399645
8.96161e-05
0.0399655
9.69408e-05
0.0399775
0.000100184
0.0400116
0.000106822
0.0399804
0.000114017
0.0399718
0.000120531
0.0399739
0.00012605
0.0399772
0.000131471
0.03998
0.000134735
0.0399854
0.000136837
0.0399896
0.000137756
0.0399939
0.000137528
0.0399981
0.000134202
0.0400022
0.000133849
0.040004
0.000130552
0.0400096
0.000126379
0.0400129
0.000121443
0.0400159
0.000115836
0.0400166
0.000109635
0.0400209
0.000102927
0.040023
9.18112e-05
0.0400287
7.23526e-05
0.0400521
6.66189e-05
0.0400613
6.26014e-05
0.0400304
5.64151e-05
0.0400272
5.80948e-05
0.0400179
5.16676e-05
0.0400184
4.31546e-05
0.0400188
3.45821e-05
0.040019
2.5968e-05
0.0400193
1.73258e-05
0.0400194
8.66745e-06
0.0400175
0.0400196
-1.90809e-06
0.0399984
-3.78123e-06
0.0400003
-3.58136e-06
0.0399979
-7.27195e-06
0.0399994
-6.81216e-06
0.0399966
-8.16093e-06
0.0399977
-9.27311e-06
0.0399965
-1.01005e-05
0.0399951
-2.59036e-06
0.0399935
-6.90048e-07
0.0400016
-3.40712e-07
0.0400014
5.20673e-07
0.039997
7.95811e-06
0.0400003
2.03432e-06
0.0400494
2.80216e-06
0.0400082
1.63215e-05
0.0399627
1.66467e-05
0.0399431
1.98221e-05
0.0399713
2.58732e-05
0.0399814
2.68127e-05
0.0400236
3.26186e-05
0.0399858
4.12528e-05
0.0399642
5.06496e-05
0.0399609
6.07093e-05
0.0399581
7.12953e-05
0.0399558
8.22569e-05
0.0399538
9.33953e-05
0.0399534
0.0001043
0.0399545
0.00011376
0.039968
0.00011848
0.0400069
0.000126654
0.0399722
0.000135239
0.0399632
0.000143149
0.039966
0.000149631
0.0399707
0.000153605
0.0399761
0.000157377
0.0399816
0.000159731
0.0399872
0.000162673
0.0399909
0.000162246
0.0399985
0.000160524
0.0400039
0.000155571
0.040009
0.000153516
0.0400117
0.000148467
0.040018
0.000142522
0.0400219
0.000133803
0.0400253
0.000128416
0.0400263
0.000118483
0.0400329
9.60749e-05
0.0400511
6.73669e-05
0.0400808
8.42249e-05
0.0400444
7.6842e-05
0.0400378
7.7306e-05
0.0400268
6.76145e-05
0.0400276
5.78148e-05
0.0400282
4.79358e-05
0.0400286
3.80003e-05
0.040029
3.00293e-05
0.0400272
2.00309e-05
0.0400294
8.01616e-06
0.0400295
0.0400276
-2.15748e-06
0.0400006
-2.2754e-06
0.0400004
-6.31738e-06
0.040002
-6.24151e-06
0.0399993
-1.00071e-05
0.0400004
-1.15674e-05
0.0399992
-1.08738e-05
0.0399958
-1.18733e-05
0.0399961
-1.25075e-05
0.0399941
-2.7132e-06
0.0399918
-4.24829e-07
0.0399992
-1.56969e-06
0.0399982
1.92946e-06
0.0399968
1.41464e-05
0.0400371
1.31453e-05
0.0400092
3.70006e-05
0.0399389
1.98052e-05
0.0399603
2.15945e-05
0.0399695
2.44192e-05
0.0399786
3.02972e-05
0.0400177
3.72129e-05
0.0399789
4.51354e-05
0.0399563
5.59977e-05
0.0399501
6.76777e-05
0.0399464
8.00365e-05
0.0399435
9.2866e-05
0.039941
0.000106151
0.0399401
0.00011904
0.0399417
0.000130244
0.0399568
0.000136834
0.0400003
0.000146949
0.0399621
0.000157103
0.0399531
0.000165956
0.0399571
0.00017374
0.0399629
0.000180531
0.0399693
0.000184851
0.0399773
0.000187477
0.0399846
0.000186425
0.039992
0.000187757
0.0399972
0.000185564
0.0400061
0.000181966
0.0400126
0.000175076
0.0400186
0.000171036
0.040022
0.000164001
0.0400289
0.000156099
0.0400332
0.000145469
0.040037
0.000134221
0.0400442
0.000114488
0.0400708
0.000104379
0.040091
9.98556e-05
0.040049
9.91165e-05
0.0400385
8.81835e-05
0.0400377
7.71083e-05
0.0400386
6.59315e-05
0.0400393
5.4683e-05
0.0400399
4.5389e-05
0.0400383
3.20589e-05
0.0400406
2.27151e-05
0.0400387
1.1358e-05
0.0400409
0.0400389
-2.46299e-06
0.040003
-4.88344e-06
0.0400028
-5.22411e-06
0.0400023
-9.44503e-06
0.0400035
-9.49927e-06
0.0400004
-1.13415e-05
0.0400011
-1.29168e-05
0.0399974
-1.41678e-05
0.0399974
-1.50308e-05
0.039995
-1.54358e-05
0.0399922
-5.30727e-06
0.039989
-2.56268e-06
0.0399954
8.83781e-07
0.0399934
3.91248e-05
0.0399989
1.82815e-05
0.04003
1.43984e-05
0.0399427
1.3583e-05
0.0399611
1.79145e-05
0.0399652
2.74548e-05
0.0399691
4.0246e-05
0.0400049
3.82876e-05
0.0399808
4.75436e-05
0.039947
5.99476e-05
0.0399377
7.33859e-05
0.039933
8.76685e-05
0.0399292
0.000102587
0.0399261
0.000117856
0.0399248
0.000132962
0.0399266
0.000146587
0.0399432
0.000155323
0.0399915
0.000167225
0.0399502
0.000179141
0.0399411
0.000189927
0.0399463
0.000198543
0.0399543
0.000204439
0.0399634
0.000209366
0.0399723
0.000214268
0.0399797
0.000215192
0.0399911
0.000212223
0.0400001
0.000211484
0.0400068
0.000207119
0.0400169
0.000201293
0.0400244
0.000194188
0.0400291
0.000185956
0.0400371
0.000176771
0.0400424
0.000162793
0.0400509
0.000132172
0.0400748
0.000109069
0.0400939
0.00012347
0.0400766
0.000121539
0.0400509
0.000111373
0.0400487
9.90292e-05
0.04005
8.65558e-05
0.0400511
7.59982e-05
0.0400499
6.33759e-05
0.0400525
4.87223e-05
0.0400529
3.8052e-05
0.0400512
2.33657e-05
0.0400534
1.2682e-05
0.0400515
0.0400516
-2.82861e-06
0.0400059
-5.61202e-06
0.0400056
-8.31599e-06
0.040005
-8.89794e-06
0.0400041
-1.33141e-05
0.0400049
-1.3512e-05
0.0400013
-1.74382e-05
0.0400013
-1.70284e-05
0.039997
-1.82166e-05
0.0399962
-1.89225e-05
0.0399929
-1.90617e-05
0.0399892
-8.54102e-06
0.0399849
-5.25376e-06
0.0399901
4.90948e-06
0.0399887
1.60679e-05
0.0400188
4.31763e-06
0.0399545
7.77526e-06
0.0399576
1.655e-05
0.0399564
3.07331e-05
0.0399549
6.8376e-05
0.0399672
5.15541e-05
0.0399976
5.02055e-05
0.0399484
6.22571e-05
0.0399256
7.75893e-05
0.0399176
9.40091e-05
0.0399128
0.000111452
0.0399086
0.000128986
0.0399073
0.000146851
0.0399087
0.000162822
0.0399272
0.000174005
0.0399804
0.000188195
0.039936
0.000202375
0.039927
0.00021448
0.0399342
0.000224899
0.0399439
0.000233624
0.0399547
0.000239179
0.0399668
0.000240351
0.0399785
0.000243211
0.0399882
0.000241855
0.0400015
0.000236454
0.0400122
0.000233203
0.0400202
0.000226305
0.0400313
0.000215972
0.0400395
0.000208417
0.0400447
0.00019584
0.040055
0.000172407
0.0400744
0.000136379
0.0401108
0.000141711
0.0400886
0.000148613
0.0400697
0.000137218
0.0400623
0.000123597
0.0400623
0.000109809
0.0400638
9.59281e-05
0.040065
8.1977e-05
0.0400638
6.79898e-05
0.0400665
5.59919e-05
0.0400649
4.19869e-05
0.0400652
2.79836e-05
0.0400674
1.39857e-05
0.0400655
0.0400656
-3.25642e-06
0.0400091
-6.46577e-06
0.0400088
-9.59827e-06
0.0400081
-1.26125e-05
0.0400071
-1.34626e-05
0.0400057
-1.60989e-05
0.0400039
-1.84637e-05
0.0400037
-2.04914e-05
0.039999
-2.21079e-05
0.0399978
-2.32289e-05
0.039994
-2.17589e-05
0.0399877
-2.15932e-05
0.0399847
-1.26149e-05
0.0399811
-6.69606e-06
0.0399828
3.0291e-05
0.0399819
8.55748e-06
0.0399762
4.17604e-06
0.039962
9.28802e-06
0.0399513
2.00262e-05
0.0399441
4.04915e-05
0.0399468
3.87772e-05
0.0399994
4.68406e-05
0.0399403
6.26314e-05
0.0399098
8.00256e-05
0.0399002
9.88194e-05
0.039894
0.000118686
0.0398887
0.000139258
0.0398867
0.000159847
0.0398881
0.000178971
0.0399081
0.00019303
0.0399663
0.000209896
0.0399191
0.000226235
0.0399106
0.000240752
0.0399197
0.000252526
0.0399321
0.000260395
0.0399468
0.000268622
0.0399585
0.000272033
0.0399751
0.000270722
0.0399895
0.000270853
0.0400014
0.000266642
0.0400164
0.000258333
0.0400285
0.000252192
0.0400374
0.000242488
0.0400492
0.000231448
0.0400557
0.000213324
0.0400731
0.000188351
0.0400993
0.000174668
0.0401245
0.000178443
0.0400848
0.000165794
0.0400823
0.00015087
0.0400772
0.00013575
0.0400774
0.000120506
0.0400791
0.000107198
0.0400783
8.98495e-05
0.0400812
7.65044e-05
0.0400798
5.91613e-05
0.0400823
4.38417e-05
0.0400806
3.05463e-05
0.0400807
1.52626e-05
0.0400808
0.0400809
-3.74661e-06
0.0400129
-5.44407e-06
0.0400105
-9.07179e-06
0.0400118
-1.25885e-05
0.0400106
-1.59507e-05
0.0400091
-1.91085e-05
0.0400071
-2.20044e-05
0.0400066
-2.4571e-05
0.0400015
-2.67308e-05
0.0399999
-2.6392e-05
0.0399937
-2.94502e-05
0.0399907
-2.97869e-05
0.0399851
-2.7267e-05
0.0399786
-1.57447e-05
0.0399713
-9.04656e-06
0.0399752
-8.98304e-06
0.0399762
-5.40221e-06
0.0399584
1.88368e-06
0.039944
1.10474e-05
0.039935
2.22444e-05
0.0399356
2.95985e-05
0.039992
4.31006e-05
0.0399268
6.07373e-05
0.0398922
8.03929e-05
0.0398806
0.000101826
0.0398725
0.000124699
0.0398659
0.000148719
0.0398627
0.000172751
0.0398641
0.000195132
0.0398857
0.00021258
0.0399489
0.000232567
0.0398991
0.000251863
0.0398913
0.000268508
0.0399031
0.000282087
0.0399185
0.000293183
0.0399357
0.000298106
0.0399536
0.000303692
0.0399695
0.000304091
0.0399891
0.000299532
0.0400059
0.000296304
0.0400197
0.000288737
0.0400361
0.000279128
0.040047
0.000267812
0.0400605
0.000249093
0.0400744
0.000211267
0.0401109
0.000182626
0.040128
0.000203189
0.0401039
0.000195235
0.0400928
0.000178956
0.0400986
0.000164439
0.0400917
0.000147791
0.0400941
0.00013106
0.0400958
0.000114311
0.040095
9.7574e-05
0.0400979
8.08733e-05
0.0400965
6.62234e-05
0.0400969
4.96142e-05
0.0400972
3.30435e-05
0.0400973
1.65067e-05
0.0400974
0.0400974
-4.29645e-06
0.0400172
-8.54576e-06
0.0400148
-1.27323e-05
0.0400159
-1.68209e-05
0.0400147
-2.07712e-05
0.040013
-2.4536e-05
0.0400108
-2.60576e-05
0.0400081
-2.92703e-05
0.0400048
-3.00909e-05
0.0400008
-3.44291e-05
0.039998
-3.41667e-05
0.0399905
-3.51719e-05
0.0399861
-3.52966e-05
0.0399787
-3.43602e-05
0.0399704
-2.41738e-05
0.039965
-2.05127e-05
0.0399725
-1.51747e-05
0.0399531
-7.91589e-06
0.0399367
1.49786e-06
0.0399256
1.3284e-05
0.0399238
2.36395e-05
0.0399816
3.65929e-05
0.0399138
5.61757e-05
0.0398726
7.82989e-05
0.0398585
0.000102715
0.0398481
0.000129012
0.0398396
0.000156649
0.039835
0.0001849
0.0398358
0.000211415
0.0398592
0.000232856
0.0399274
0.000256557
0.0398754
0.000278944
0.0398689
0.00029825
0.0398837
0.000313883
0.0399029
0.000326532
0.039923
0.000334136
0.039946
0.000335785
0.0399679
0.000337703
0.0399872
0.00033421
0.0400094
0.000327707
0.0400262
0.000318547
0.0400452
0.00030721
0.0400584
0.000292031
0.0400757
0.00025941
0.0401071
0.000215775
0.0401546
0.000229155
0.0401146
0.000227797
0.0401053
0.000210071
0.0401105
0.000196074
0.0401126
0.000175892
0.0401119
0.000159655
0.0401103
0.000141426
0.040114
0.000123233
0.0401132
0.000107117
0.0401141
8.70745e-05
0.0401166
6.9126e-05
0.0401149
5.12583e-05
0.040115
3.54639e-05
0.0401131
1.77099e-05
0.0401151
0.0401151
-2.90039e-06
0.0400201
-9.7592e-06
0.0400216
-1.45664e-05
0.0400208
-1.72927e-05
0.0400174
-2.19053e-05
0.0400176
-2.6359e-05
0.0400153
-3.06043e-05
0.0400123
-3.45718e-05
0.0400087
-3.81821e-05
0.0400044
-3.93367e-05
0.0399992
-4.39153e-05
0.0399951
-4.57754e-05
0.0399879
-4.47487e-05
0.0399777
-4.46321e-05
0.0399702
-4.12043e-05
0.0399615
-3.21984e-05
0.0399635
-2.93517e-05
0.0399502
-2.03748e-05
0.0399278
-1.09453e-05
0.0399161
3.23453e-06
0.0399096
3.04212e-05
0.0399545
3.08313e-05
0.0399134
4.84549e-05
0.039855
7.32709e-05
0.0398337
0.000101044
0.0398203
0.000131318
0.0398093
0.00016341
0.0398029
0.000196286
0.0398029
0.00022791
0.0398276
0.000254203
0.0399011
0.00028236
0.0398473
0.000308614
0.0398427
0.000331279
0.0398611
0.00034921
0.0398849
0.000361113
0.0399111
0.000371338
0.0399358
0.000374864
0.0399644
0.000374021
0.039988
0.000369276
0.0400142
0.000361097
0.0400343
0.000350025
0.0400563
0.000334574
0.0400738
0.000315236
0.040095
0.000282462
0.0401398
0.000274633
0.0401624
0.000263796
0.0401254
0.000246508
0.0401226
0.000224947
0.0401321
0.000209056
0.0401285
0.000191163
0.0401298
0.000171303
0.0401302
0.00015154
0.0401338
0.000131902
0.0401329
0.000112403
0.0401336
9.50702e-05
0.0401339
7.58627e-05
0.0401341
5.67757e-05
0.0401341
3.57786e-05
0.0401341
1.88638e-05
0.040132
0.040134
-5.55536e-06
0.0400256
-1.10717e-05
0.0400271
-1.45524e-05
0.0400242
-2.19807e-05
0.0400249
-2.5323e-05
0.040021
-3.05477e-05
0.0400205
-3.56064e-05
0.0400174
-4.04375e-05
0.0400136
-4.49633e-05
0.0400089
-4.90826e-05
0.0400033
-5.06791e-05
0.0399967
-5.35934e-05
0.0399908
-5.564e-05
0.0399797
-5.66045e-05
0.0399712
-5.62115e-05
0.0399611
-5.41593e-05
0.0399614
-4.21452e-05
0.0399382
-3.77626e-05
0.0399234
-2.46459e-05
0.039903
-4.38256e-06
0.0398894
5.33447e-05
0.0398967
3.51769e-05
0.0399316
3.89512e-05
0.0398512
6.46957e-05
0.0398079
9.62578e-05
0.0397888
0.000131148
0.0397744
0.000168553
0.0397655
0.000207391
0.0397641
0.00024481
0.0397901
0.00027696
0.039869
0.000310532
0.0398137
0.000341615
0.0398116
0.000367791
0.0398349
0.000388339
0.0398644
0.000403758
0.0398957
0.000410478
0.0399291
0.000415584
0.0399592
0.000411603
0.039992
0.000407109
0.0400186
0.000394767
0.0400467
0.000383322
0.0400677
0.00036134
0.0400958
0.000311488
0.0401449
0.00028232
0.040169
0.000297814
0.0401469
0.000288681
0.0401346
0.000267184
0.0401441
0.000245555
0.0401537
0.000223771
0.0401503
0.000204116
0.0401495
0.000180617
0.0401537
0.000161326
0.0401531
0.000140253
0.0401539
0.00011941
0.0401544
9.87872e-05
0.0401545
7.83634e-05
0.0401545
6.0117e-05
0.0401524
3.99929e-05
0.0401542
1.996e-05
0.0401521
0.0401539
-6.2483e-06
0.0400319
-1.24645e-05
0.0400333
-1.86673e-05
0.0400304
-2.28436e-05
0.040029
-3.09813e-05
0.0400291
-3.50467e-05
0.0400246
-4.1007e-05
0.0400234
-4.6807e-05
0.0400194
-5.23748e-05
0.0400145
-5.76155e-05
0.0400085
-6.24054e-05
0.0400015
-6.45865e-05
0.039993
-6.99617e-05
0.0399851
-7.02898e-05
0.0399715
-7.12681e-05
0.0399621
-7.05337e-05
0.0399607
-6.77173e-05
0.0399354
-5.4369e-05
0.03991
-4.59465e-05
0.0398946
-3.193e-05
0.0398753
-1.79745e-06
0.0398666
5.1131e-06
0.0399247
2.09123e-05
0.0398354
5.17756e-05
0.039777
8.76187e-05
0.0397529
0.000127889
0.0397341
0.000171641
0.0397218
0.00021733
0.0397184
0.000262293
0.0397452
0.000301659
0.0398296
0.000341831
0.0397735
0.000378575
0.0397749
0.00040889
0.0398046
0.000432578
0.0398407
0.000449524
0.0398788
0.000458472
0.0399201
0.000460749
0.039957
0.000457001
0.0399958
0.000448154
0.0400275
0.000435094
0.0400597
0.000414645
0.0400882
0.000377614
0.0401328
0.000324947
0.0401975
0.000334629
0.0401593
0.000331298
0.0401502
0.000309625
0.0401562
0.000283801
0.0401699
0.000261912
0.0401756
0.00024018
0.040172
0.000214692
0.0401749
0.00019353
0.0401748
0.000170697
0.0401759
0.000148207
0.0401764
0.000126049
0.0401766
0.000106206
0.0401744
8.46201e-05
0.0401761
6.12466e-05
0.0401757
4.20627e-05
0.0401734
1.89766e-05
0.0401752
0.0401729
-6.96849e-06
0.0400389
-1.19119e-05
0.0400383
-2.08714e-05
0.0400394
-2.78412e-05
0.040036
-3.28171e-05
0.0400341
-4.17904e-05
0.0400335
-4.67259e-05
0.0400283
-5.35948e-05
0.0400262
-5.83251e-05
0.0400192
-6.48352e-05
0.0400151
-7.1002e-05
0.0400076
-7.66788e-05
0.0399987
-8.16518e-05
0.0399901
-8.56642e-05
0.0399755
-8.83849e-05
0.0399648
-8.74074e-05
0.0399597
-8.62818e-05
0.0399343
-8.44468e-05
0.0399082
-7.12767e-05
0.0398814
-5.80564e-05
0.0398621
-3.8028e-05
0.0398466
-2.48256e-06
0.0398891
5.28024e-06
0.0398276
3.34612e-05
0.0397489
7.41031e-05
0.0397123
0.000120704
0.0396875
0.000172122
0.0396704
0.000226637
0.0396639
0.000280529
0.0396913
0.000328941
0.0397812
0.000377329
0.0397251
0.000420732
0.0397315
0.000456602
0.0397687
0.000483558
0.0398138
0.000499733
0.0398626
0.000510477
0.0399094
0.000509197
0.0399582
0.000504981
0.04
0.000488939
0.0400435
0.000466313
0.0400824
0.00044012
0.0401144
0.000407491
0.0401655
0.000393046
0.040212
0.000379262
0.0401731
0.000356965
0.0401725
0.00032651
0.0401867
0.00029821
0.0401982
0.000277914
0.0401959
0.000252074
0.0401978
0.000228744
0.0401983
0.000203895
0.0401997
0.000179545
0.0402003
0.000155667
0.0402003
0.000134262
0.040198
0.000109228
0.0401994
8.85586e-05
0.0401968
6.6159e-05
0.0401981
4.39742e-05
0.0401956
2.19326e-05
0.0401972
0.0401948
-7.70106e-06
0.0400466
-1.53914e-05
0.040046
-2.11201e-05
0.0400451
-2.8908e-05
0.0400438
-3.87652e-05
0.0400439
-4.4687e-05
0.0400395
-5.26698e-05
0.0400363
-6.0687e-05
0.0400342
-6.86917e-05
0.0400272
-7.66133e-05
0.040023
-8.43457e-05
0.0400153
-9.17409e-05
0.0400061
-9.65961e-05
0.0399949
-0.000102638
0.0399816
-0.00010553
0.0399677
-0.000106824
0.039961
-0.00010994
0.0399374
-0.000108279
0.0399065
-0.000103056
0.0398762
-8.53871e-05
0.0398444
-6.03049e-05
0.0398215
1.31e-05
0.0398157
-3.35461e-06
0.0398441
1.02161e-05
0.0397353
5.42515e-05
0.0396683
0.000108319
0.0396335
0.000169265
0.0396094
0.000234145
0.039599
0.000299721
0.0396257
0.000359544
0.0397214
0.000418243
0.0396664
0.000470331
0.0396794
0.000512124
0.0397269
0.000542465
0.0397834
0.000561941
0.0398431
0.00056975
0.0399016
0.000568039
0.03996
0.000554216
0.0400138
0.000523958
0.0400738
0.000478718
0.0401276
0.000434033
0.040159
0.000408943
0.0401905
0.00042796
0.0401929
0.000408296
0.0401928
0.000378566
0.0402022
0.000347071
0.0402182
0.000319905
0.0402253
0.000293247
0.0402225
0.000267315
0.0402238
0.000240094
0.0402255
0.00021358
0.0402262
0.000187749
0.0402261
0.000164565
0.0402235
0.000137932
0.0402246
0.000115826
0.0402215
9.01219e-05
0.0402225
6.87863e-05
0.0402195
4.36874e-05
0.0402207
2.2786e-05
0.0402181
0.0402176
-8.42925e-06
0.040055
-1.68627e-05
0.0400544
-2.53683e-05
0.0400536
-3.39836e-05
0.0400524
-4.07305e-05
0.0400507
-4.96359e-05
0.0400484
-5.87072e-05
0.0400454
-6.79381e-05
0.0400435
-7.73146e-05
0.0400366
-8.67775e-05
0.0400324
-9.4244e-05
0.0400228
-0.000103582
0.0400154
-0.000112618
0.040004
-0.000121077
0.03999
-0.000126621
0.0399733
-0.000124792
0.0399592
-0.000132786
0.0399454
-0.000138057
0.0399118
-0.000135643
0.0398738
-0.000128425
0.0398372
-0.000105157
0.0397982
-7.23442e-05
0.0397829
-5.61609e-05
0.0398279
-2.35988e-05
0.0397027
2.63596e-05
0.0396183
8.90767e-05
0.0395707
0.000161493
0.039537
0.000240307
0.0395202
0.000320426
0.0395456
0.000395351
0.0396464
0.00046705
0.0395947
0.000529364
0.0396171
0.000578641
0.0396776
0.000612864
0.0397492
0.000632544
0.0398234
0.000636149
0.039898
0.000628462
0.0399676
0.000597651
0.0400446
0.000561621
0.0401098
0.00053648
0.0401527
0.000492076
0.0402035
0.000481239
0.0402014
0.000467279
0.0402069
0.000437364
0.0402227
0.000399849
0.0402398
0.000363067
0.040255
0.00033686
0.0402516
0.00030771
0.0402517
0.000277626
0.0402538
0.00024854
0.0402546
0.00022242
0.0402523
0.000195163
0.0402534
0.00016873
0.0402499
0.000142998
0.0402503
0.000117882
0.0402466
9.52911e-05
0.0402451
6.90855e-05
0.0402457
4.72135e-05
0.0402426
2.35348e-05
0.0402418
0.0402411
-9.13426e-06
0.0400641
-1.829e-05
0.0400636
-2.75556e-05
0.0400629
-3.49803e-05
0.0400598
-4.46192e-05
0.0400603
-5.45118e-05
0.0400583
-6.66968e-05
0.0400575
-7.51877e-05
0.040052
-8.59985e-05
0.0400474
-9.51048e-05
0.0400415
-0.000108461
0.0400362
-0.000117961
0.0400249
-0.000129444
0.0400155
-0.000140689
0.0400013
-0.000151331
0.0399839
-0.000156905
0.0399648
-0.00016665
0.0399551
-0.000171834
0.039917
-0.000173378
0.0398753
-0.000169879
0.0398337
-0.000159724
0.0397881
-0.000131128
0.0397543
-9.58893e-05
0.0397927
-6.96196e-05
0.0396765
-1.30451e-05
0.0395617
6.03522e-05
0.0394973
0.000146546
0.0394508
0.000242391
0.0394244
0.000342996
0.039445
0.000437944
0.0395515
0.000524445
0.0395082
0.000600206
0.0395413
0.00065804
0.0396198
0.000695822
0.0397114
0.000713016
0.0398062
0.000714347
0.0398966
0.000685717
0.0399963
0.000646084
0.0400842
0.000620419
0.0401355
0.000597357
0.0401758
0.000567483
0.0402333
0.000538098
0.0402308
0.000500674
0.0402443
0.000461933
0.0402614
0.000422248
0.0402794
0.000387782
0.0402894
0.000354648
0.0402847
0.000323025
0.0402833
0.000290805
0.0402861
0.000259908
0.0402855
0.000230236
0.040282
0.000201668
0.0402819
0.000174085
0.0402775
0.00014937
0.040275
0.000121355
0.0402747
9.59581e-05
0.0402705
7.30496e-05
0.0402686
4.84911e-05
0.0402671
2.41649e-05
0.0402661
0.0402653
-9.79553e-06
0.0400739
-1.76275e-05
0.0400714
-2.76116e-05
0.0400729
-3.9821e-05
0.0400721
-5.03196e-05
0.0400708
-6.11798e-05
0.0400691
-7.04613e-05
0.0400668
-8.22245e-05
0.0400637
-9.4503e-05
0.0400597
-0.000107332
0.0400544
-0.000118688
0.0400475
-0.000134531
0.0400408
-0.000146743
0.0400277
-0.000161129
0.0400157
-0.000175399
0.0399982
-0.00018707
0.0399764
-0.000195479
0.0399636
-0.000209655
0.0399312
-0.000216426
0.0398821