/*--------------------------------*- C++ -*----------------------------------*\
  =========                 |
  \\      /  F ield         | OpenFOAM: The Open Source CFD Toolbox
   \\    /   O peration     | Website:  https://openfoam.org
    \\  /    A nd           | Version:  12
     \\/     M anipulation  |
\*---------------------------------------------------------------------------*/
FoamFile
{
    format      ascii;
    class       volVectorField;
    location    "120";
    object      U;
}
// * * * * * * * * * * * * * * * * * * * * * * * * * * * * * * * * * * * * * //

dimensions      [0 1 -1 0 0 0 0];

internalField   nonuniform List<vector> 
16227
(
(2 -5.91463e-06 -5.94219e-23)
(2 -1.77415e-05 5.96887e-23)
(2 -2.94234e-05 -5.96896e-23)
(2 -4.08757e-05 -6.00506e-23)
(2 -5.19948e-05 6.00515e-23)
(2 -6.26767e-05 6.06244e-23)
(2 -7.28221e-05 3.73123e-25)
(2 -8.2316e-05 -1.22385e-22)
(2 -9.1038e-05 1.85125e-22)
(2 -9.88725e-05 -1.2372e-22)
(2 -0.000105703 0)
(2 -0.000111415 1.26331e-22)
(2 -0.000115853 0)
(2 -0.000118894 0)
(2 -0.00012043 0)
(2 -0.000120356 0)
(2 -0.00011858 0)
(2 -0.000115033 0)
(2 -0.000109671 0)
(2 -0.000102478 0)
(2 -9.34731e-05 -1.36122e-22)
(2 -8.2714e-05 -5.63368e-25)
(2 -7.03013e-05 1.36684e-22)
(2 -5.6383e-05 0)
(2 -4.11467e-05 -1.373e-22)
(2 -2.48185e-05 1.37299e-22)
(2 -7.65899e-06 0)
(2 1.00328e-05 6.82459e-23)
(2 2.7956e-05 0)
(2 4.58001e-05 0)
(2 6.32603e-05 0)
(2 8.00112e-05 0)
(2 9.57399e-05 0)
(2 0.000110202 1.27639e-22)
(2 0.000123182 -2.04111e-24)
(2 0.00013451 -1.25596e-22)
(2 0.000144055 0)
(2 0.000151739 1.18775e-22)
(2 0.000157532 -2.42396e-24)
(2 0.000161444 -1.16351e-22)
(2 0.000163524 0)
(2 0.00016385 0)
(2 0.000162527 0)
(2 0.000159677 0)
(2 0.000155429 0)
(2 0.00014992 0)
(2 0.000143293 0)
(2 0.000135698 0)
(2 0.000127257 0)
(2 0.000118084 0)
(2 0.000108303 0)
(2 9.80174e-05 0)
(2 8.73394e-05 0)
(2 7.63067e-05 0)
(2 6.49697e-05 -4.28491e-23)
(2 5.34067e-05 4.28508e-23)
(2 4.16877e-05 0)
(2 2.98673e-05 0)
(2 1.79766e-05 0)
(2 6.02633e-06 4.16776e-23)
(2.00002 -1.01789e-05 1.21444e-25)
(2.00002 -3.0487e-05 0)
(2.00002 -5.02399e-05 0)
(2.00002 -6.91397e-05 0)
(2.00002 -8.68043e-05 -1.016e-22)
(2.00002 -0.000102869 0)
(2.00002 -0.00011695 0)
(2.00002 -0.000128654 -3.10856e-22)
(2.00002 -0.000137568 2.07529e-22)
(2.00001 -0.000143279 -4.21599e-22)
(2.00001 -0.000145371 1.69508e-21)
(2.00001 -0.000143451 -1.06598e-21)
(2 -0.000137097 5.36851e-22)
(2 -0.000125855 0)
(2 -0.000109391 0)
(1.99999 -8.74118e-05 0)
(1.99999 -5.96662e-05 0)
(1.99999 -2.59966e-05 0)
(1.99998 1.36565e-05 0)
(1.99998 5.92368e-05 0)
(1.99997 0.000110562 0)
(1.99997 0.000167297 0)
(1.99997 0.000228941 0)
(1.99996 0.00029483 0)
(1.99996 0.000364154 0)
(1.99996 0.000435952 -2.32044e-22)
(1.99996 0.000509152 2.32034e-22)
(1.99996 0.000582549 -1.15365e-22)
(1.99996 0.000654931 0)
(1.99996 0.000725075 0)
(1.99996 0.000791727 0)
(1.99996 0.000853728 0)
(1.99996 0.000909937 0)
(1.99997 0.00095945 0)
(1.99997 0.00100148 0)
(1.99998 0.00103547 -2.08754e-22)
(1.99998 0.00106099 3.88682e-24)
(1.99999 0.00107783 4.02862e-24)
(1.99999 0.00108597 4.12766e-24)
(2 0.00108554 1.96705e-22)
(2 0.00107683 1.88322e-22)
(2 0.00106025 -1.88324e-22)
(2.00001 0.0010363 0)
(2.00001 0.00100556 0)
(2.00002 0.000968621 0)
(2.00002 0.000926114 0)
(2.00002 0.00087866 0)
(2.00002 0.000826902 0)
(2.00003 0.000771401 0)
(2.00003 0.000712693 0)
(2.00003 0.000651291 1.52729e-22)
(2.00003 0.000587628 -3.03981e-22)
(2.00003 0.000522165 -2.96355e-22)
(2.00003 0.00045519 2.96382e-22)
(2.00003 0.000386931 -2.89426e-22)
(2.00003 0.000317698 4.32804e-22)
(2.00003 0.00024777 -1.43436e-22)
(2.00003 0.000177346 7.08513e-23)
(2.00003 0.000106591 -7.08544e-23)
(2.00003 3.56201e-05 -1.73271e-25)
(2.00004 -1.04838e-05 1.00217e-22)
(2.00004 -3.12331e-05 0)
(2.00004 -5.1041e-05 0)
(2.00004 -6.93511e-05 0)
(2.00004 -8.55163e-05 1.01605e-22)
(2.00003 -9.88928e-05 -2.04657e-22)
(2.00003 -0.000108824 -1.29338e-24)
(2.00002 -0.000114622 3.09186e-22)
(2.00002 -0.000115577 1.03954e-22)
(2.00001 -0.000110974 4.21311e-22)
(2 -0.000100104 -4.19536e-22)
(1.99999 -8.22698e-05 -8.51794e-22)
(1.99999 -5.67694e-05 1.07664e-22)
(1.99998 -2.28922e-05 0)
(1.99997 1.99521e-05 1.09787e-22)
(1.99995 7.22618e-05 0)
(1.99994 0.000134416 0)
(1.99993 0.000206654 0)
(1.99992 0.00028903 -4.55932e-22)
(1.99991 0.000381383 4.55865e-22)
(1.9999 0.000483285 -2.30734e-22)
(1.99989 0.000594158 2.30721e-22)
(1.99988 0.000713025 0)
(1.99987 0.000838638 -2.32876e-22)
(1.99986 0.000969478 -6.73004e-26)
(1.99986 0.00110378 2.32913e-22)
(1.99986 0.00123954 0)
(1.99986 0.0013746 0)
(1.99986 0.00150671 0)
(1.99987 0.00163359 0)
(1.99987 0.00175298 1.11708e-22)
(1.99988 0.00186275 -2.25149e-22)
(1.9999 0.00196097 0)
(1.99991 0.00204599 0)
(1.99992 0.00211645 2.12719e-22)
(1.99994 0.00217138 -2.12707e-22)
(1.99996 0.00221007 0)
(1.99997 0.00223218 0)
(1.99999 0.00223777 0)
(2.00001 0.00222714 0)
(2.00002 0.0022009 0)
(2.00004 0.00215986 0)
(2.00005 0.00210501 -9.0864e-23)
(2.00006 0.00203745 0)
(2.00008 0.00195833 0)
(2.00009 0.00186882 0)
(2.00009 0.00177016 -8.14732e-23)
(2.0001 0.00166352 1.64436e-22)
(2.00011 0.00154995 0)
(2.00011 0.00143049 7.80011e-23)
(2.00012 0.00130607 0)
(2.00012 0.00117754 1.51196e-22)
(2.00013 0.00104567 2.9542e-22)
(2.00013 0.000911005 6.93855e-23)
(2.00013 0.00077402 -2.91651e-22)
(2.00013 0.000635326 1.42905e-22)
(2.00013 0.000495367 -1.42958e-22)
(2.00014 0.000354468 0)
(2.00014 0.000212978 0)
(2.00014 7.10789e-05 -7.01945e-23)
(2.00006 -1.16499e-05 0)
(2.00006 -3.45672e-05 0)
(2.00006 -5.61676e-05 -1.00358e-22)
(2.00006 -7.56322e-05 0)
(2.00005 -9.20414e-05 -1.01552e-22)
(2.00004 -0.00010449 1.0155e-22)
(2.00003 -0.000112027 0)
(2.00002 -0.000113671 -3.10966e-22)
(2.00001 -0.000108424 3.09951e-22)
(2 -9.52465e-05 0)
(1.99998 -7.31186e-05 -4.2463e-22)
(1.99997 -4.10296e-05 -1.28028e-21)
(1.99995 1.99872e-06 -2.15396e-22)
(1.99993 5.69731e-05 0)
(1.9999 0.00012478 -1.09797e-22)
(1.99988 0.000206133 0)
(1.99986 0.000301598 0)
(1.99983 0.000411522 9.06775e-22)
(1.99981 0.000535973 -9.06591e-22)
(1.99979 0.00067468 0)
(1.99976 0.000827074 -2.31399e-22)
(1.99974 0.000992269 -1.11844e-24)
(1.99973 0.00116886 -8.18758e-25)
(1.99971 0.00135498 2.33312e-22)
(1.9997 0.00154842 0)
(1.99969 0.00174653 0)
(1.99969 0.00194639 0)
(1.99969 0.00214477 1.15903e-22)
(1.9997 0.00233832 5.11359e-26)
(1.99972 0.00252374 1.14127e-22)
(1.99973 0.00269763 -7.78275e-25)
(1.99976 0.00285684 0)
(1.99978 0.00299852 0)
(1.99982 0.00312026 0)
(1.99985 0.00322011 -2.13233e-22)
(1.99989 0.00329661 3.87882e-24)
(1.99992 0.00334883 4.06893e-24)
(1.99996 0.00337643 4.21253e-24)
(2 0.00337946 3.97777e-22)
(2.00003 0.00335844 -1.96723e-22)
(2.00007 0.00331435 0)
(2.0001 0.00324847 -9.28591e-23)
(2.00013 0.00316231 9.0819e-23)
(2.00016 0.00305751 0)
(2.00018 0.00293586 0)
(2.0002 0.00279916 0)
(2.00022 0.00264921 -8.29132e-23)
(2.00024 0.00248772 0)
(2.00025 0.00231628 0)
(2.00027 0.00213645 -1.55526e-22)
(2.00028 0.00194958 -3.02916e-22)
(2.00028 0.00175686 6.00951e-22)
(2.00029 0.00155946 -2.98154e-22)
(2.0003 0.001358 -3.63167e-22)
(2.0003 0.00115341 2.90026e-22)
(2.00031 0.000946503 0)
(2.00031 0.000737861 0)
(2.00031 0.000527886 7.00425e-23)
(2.00031 0.000317131 0)
(2.00031 0.000105785 0)
(2.00009 -1.35002e-05 0)
(2.00009 -3.99886e-05 0)
(2.00008 -6.47836e-05 4.23142e-25)
(2.00008 -8.68172e-05 0)
(2.00007 -0.000104915 0)
(2.00005 -0.000117891 -2.031e-22)
(2.00004 -0.000124512 -3.08116e-22)
(2.00002 -0.000123513 3.06831e-22)
(2 -0.000113589 0)
(1.99998 -9.33652e-05 0)
(1.99995 -6.14778e-05 -4.24091e-22)
(1.99992 -1.66191e-05 2.55651e-21)
(1.99989 4.25423e-05 -2.14331e-22)
(1.99985 0.000117252 2.16362e-22)
(1.99982 0.000208798 0)
(1.99978 0.000318118 0)
(1.99974 0.000446006 4.50482e-22)
(1.9997 0.000592995 1.36521e-21)
(1.99966 0.000759218 -6.80238e-22)
(1.99962 0.00094432 0)
(1.99958 0.00114772 0)
(1.99954 0.00136812 0)
(1.99951 0.00160369 0)
(1.99949 0.00185198 -2.3511e-22)
(1.99947 0.00211003 -2.01452e-25)
(1.99946 0.00237433 2.07805e-25)
(1.99946 0.00264091 2.35012e-22)
(1.99947 0.00290543 1.17441e-22)
(1.99948 0.00316336 -6.23053e-26)
(1.99951 0.00341019 -1.15777e-22)
(1.99954 0.00364132 3.42042e-22)
(1.99958 0.00385244 -2.27304e-22)
(1.99963 0.00403975 -2.2132e-22)
(1.99969 0.0042 2.21296e-22)
(1.99975 0.00433057 2.13976e-22)
(1.99981 0.00442956 -2.13957e-22)
(1.99988 0.00449575 0)
(1.99994 0.00452874 0)
(2.00001 0.00452876 -1.96814e-22)
(2.00007 0.00449658 1.96812e-22)
(2.00013 0.00443364 1.87776e-22)
(2.00019 0.00434176 -9.49655e-23)
(2.00024 0.00422302 0)
(2.00029 0.00407968 0)
(2.00033 0.00391426 0)
(2.00037 0.00372917 0)
(2.00041 0.00352681 0)
(2.00043 0.00330957 0)
(2.00046 0.00307954 -7.85743e-23)
(2.00048 0.00283874 -3.82709e-22)
(2.0005 0.00258903 3.06272e-22)
(2.00051 0.00233199 2.95885e-22)
(2.00053 0.00206905 -4.42054e-22)
(2.00053 0.00180097 2.87725e-22)
(2.00054 0.00152915 -2.87749e-22)
(2.00055 0.00125452 0)
(2.00055 0.000977789 0)
(2.00055 0.000699415 -6.47401e-25)
(2.00056 0.000420122 0)
(2.00056 0.000140104 0)
(2.00012 -1.58701e-05 -9.87089e-23)
(2.00011 -4.69772e-05 0)
(2.00011 -7.603e-05 6.53229e-26)
(2.0001 -0.000101733 9.98786e-23)
(2.00008 -0.000122662 0)
(2.00006 -0.000137355 4.75408e-25)
(2.00004 -0.000144322 -2.04249e-22)
(2.00001 -0.000141991 2.0417e-22)
(1.99998 -0.000128753 0)
(1.99995 -0.000102909 0)
(1.99991 -6.27386e-05 2.1031e-22)
(1.99986 -6.57515e-06 8.49707e-22)
(1.99981 6.73575e-05 -4.29908e-22)
(1.99976 0.000160464 2.17324e-22)
(1.9997 0.000274496 0)
(1.99964 0.000410746 -2.23452e-22)
(1.99958 0.000570261 2.23462e-22)
(1.99952 0.000753793 5.6292e-24)
(1.99946 0.000961632 -1.02563e-21)
(1.9994 0.00119344 -2.3181e-22)
(1.99934 0.00144864 2.31851e-22)
(1.99929 0.00172552 -1.41168e-24)
(1.99924 0.00202193 2.35041e-22)
(1.9992 0.00233482 0)
(1.99918 0.00266043 0)
(1.99916 0.00299429 0)
(1.99916 0.00333133 0)
(1.99917 0.00366596 -1.17421e-22)
(1.9992 0.00399233 0)
(1.99924 0.00430462 0)
(1.99929 0.00459687 3.45703e-22)
(1.99936 0.0048634 -2.28977e-22)
(1.99944 0.00509933 0)
(1.99952 0.00530056 0)
(1.99962 0.00546368 0)
(1.99972 0.00558629 0)
(1.99982 0.00566695 2.06238e-22)
(1.99993 0.0057052 -4.59269e-24)
(2.00003 0.00570152 -3.01354e-22)
(2.00013 0.00565707 0)
(2.00022 0.00557374 0)
(2.00031 0.005454 1.82852e-22)
(2.00039 0.00530063 -2.72997e-22)
(2.00047 0.0051167 0)
(2.00053 0.0049054 0)
(2.00059 0.00466986 0)
(2.00064 0.00441321 0)
(2.00069 0.00413844 0)
(2.00073 0.00384824 2.3342e-22)
(2.00076 0.00354519 6.06168e-22)
(2.00079 0.00323154 -6.07168e-22)
(2.00081 0.00290925 2.93099e-22)
(2.00082 0.00257979 -1.47095e-22)
(2.00084 0.00224455 0)
(2.00085 0.00190515 7.03519e-23)
(2.00086 0.00156257 0)
(2.00086 0.00121758 0)
(2.00087 0.000870787 -6.93701e-23)
(2.00087 0.000522984 0)
(2.00087 0.00017437 6.79126e-23)
(2.00015 -1.89738e-05 6.68037e-25)
(2.00015 -5.61553e-05 0)
(2.00014 -9.09485e-05 0)
(2.00012 -0.00012185 -9.91265e-23)
(2.0001 -0.000147199 0)
(2.00007 -0.000165282 1.00815e-22)
(2.00004 -0.000174352 -1.01664e-22)
(2 -0.000172534 2.03411e-22)
(1.99996 -0.000157914 0)
(1.99991 -0.000128449 -4.17906e-22)
(1.99985 -8.20276e-05 2.07579e-22)
(1.99979 -1.66763e-05 3.99853e-24)
(1.99972 6.99382e-05 8.61675e-22)
(1.99965 0.000179534 -4.35784e-22)
(1.99957 0.000314127 -2.60309e-24)
(1.99948 0.000475618 -1.15116e-22)
(1.99939 0.000665358 2.25944e-21)
(1.9993 0.000884484 -8.95666e-22)
(1.99922 0.00113345 -1.49219e-21)
(1.99913 0.00141205 2.09094e-21)
(1.99905 0.00171988 2.3478e-22)
(1.99897 0.00205467 -2.36824e-22)
(1.9989 0.00241415 -1.27713e-24)
(1.99885 0.00279457 2.38026e-22)
(1.99881 0.00319139 0)
(1.99879 0.00359912 0)
(1.99879 0.00401145 0)
(1.9988 0.00442141 0)
(1.99884 0.00482162 1.19117e-22)
(1.9989 0.00520474 0)
(1.99898 0.00556324 -3.48309e-22)
(1.99908 0.00588991 0)
(1.99919 0.00617859 2.24434e-22)
(1.99932 0.00642411 -2.24392e-22)
(1.99946 0.00662226 2.1621e-22)
(1.99961 0.00677019 -4.50588e-24)
(1.99976 0.00686612 -4.18597e-22)
(1.99991 0.00690961 2.06921e-22)
(2.00006 0.0069015 -9.74075e-23)
(2.0002 0.00684341 1.97092e-22)
(2.00034 0.0067379 9.47733e-23)
(2.00046 0.00658816 0)
(2.00058 0.00639781 9.00819e-23)
(2.00069 0.00617078 0)
(2.00078 0.00591108 0)
(2.00087 0.00562272 8.28963e-23)
(2.00094 0.00530951 -8.08293e-23)
(2.001 0.00497516 0)
(2.00105 0.00462292 9.21818e-22)
(2.0011 0.00425597 5.88219e-22)
(2.00114 0.00387702 -1.20225e-21)
(2.00117 0.00348839 -2.89763e-22)
(2.00119 0.00309156 6.46458e-22)
(2.00121 0.00268865 -2.8533e-22)
(2.00122 0.00228127 -7.03323e-23)
(2.00124 0.00187045 0)
(2.00124 0.00145708 1.36413e-22)
(2.00125 0.00104186 -6.83594e-23)
(2.00125 0.000625629 0)
(2.00126 0.000208552 -9.41811e-25)
(2.00019 -2.30497e-05 9.80503e-23)
(2.00019 -6.82268e-05 0)
(2.00017 -0.000110722 0)
(2.00015 -0.000148846 9.84692e-23)
(2.00013 -0.00018072 -5.65559e-25)
(2.00009 -0.000204399 9.96033e-23)
(2.00005 -0.000217872 -1.00304e-22)
(2 -0.000219014 -3.05794e-22)
(1.99994 -0.000205578 2.03941e-22)
(1.99987 -0.00017517 -4.16363e-22)
(1.99979 -0.000125266 -1.0925e-22)
(1.99971 -5.3503e-05 6.32616e-22)
(1.99962 4.28938e-05 -1.71548e-21)
(1.99952 0.000166368 -8.73195e-22)
(1.99941 0.000319053 8.7417e-22)
(1.99929 0.000503429 -1.11397e-22)
(1.99917 0.000721386 2.71899e-21)
(1.99905 0.000974555 -4.48726e-22)
(1.99893 0.00126385 -4.60845e-22)
(1.99881 0.00158907 -1.39774e-21)
(1.9987 0.0019502 2.38741e-22)
(1.99859 0.00234451 0)
(1.9985 0.00276961 0)
(1.99843 0.00322112 -2.41453e-22)
(1.99837 0.00369371 -6.16762e-25)
(1.99834 0.00418071 2.41966e-22)
(1.99834 0.00467446 0)
(1.99836 0.00516636 2.40438e-22)
(1.99841 0.0056473 -3.59413e-22)
(1.99849 0.00610818 0)
(1.99861 0.00653956 1.1375e-22)
(1.99874 0.00693241 -4.64024e-22)
(1.9989 0.00727913 3.76133e-24)
(1.99908 0.00757331 4.48824e-22)
(1.99927 0.00780978 -4.53926e-24)
(1.99948 0.0079851 -2.17686e-22)
(1.99968 0.00809735 0)
(1.99989 0.00814613 2.02568e-22)
(2.0001 0.00813269 -5.26398e-24)
(2.00029 0.0080593 -1.97283e-22)
(2.00048 0.00792933 -1.8935e-22)
(2.00065 0.00774697 0)
(2.00081 0.00751673 0)
(2.00095 0.00724362 -8.68271e-23)
(2.00108 0.00693259 0)
(2.00119 0.00658854 -1.64992e-22)
(2.00129 0.00621614 8.0783e-23)
(2.00137 0.00581983 -1.55998e-22)
(2.00145 0.00540355 -9.17147e-22)
(2.0015 0.00497095 -5.93189e-22)
(2.00155 0.00452532 3.01442e-22)
(2.00159 0.00406885 -5.23879e-24)
(2.00162 0.00360385 -4.27554e-22)
(2.00165 0.00313275 1.39557e-22)
(2.00167 0.00265694 0)
(2.00168 0.00217768 0)
(2.00169 0.00169591 -1.08793e-24)
(2.0017 0.00121236 0)
(2.0017 0.000727885 0)
(2.00171 0.000242584 -6.6948e-23)
(2.00024 -2.8295e-05 0)
(2.00024 -8.37675e-05 0)
(2.00022 -0.000136303 9.70756e-23)
(2.00019 -0.000184075 -9.83733e-23)
(2.00016 -0.000225005 0)
(2.00011 -0.000256933 -1.98264e-22)
(2.00006 -0.000277613 9.94555e-23)
(1.99999 -0.000284662 1.00404e-22)
(1.99992 -0.000275512 0)
(1.99983 -0.000247429 0)
(1.99973 -0.000197436 -3.15159e-22)
(1.99962 -0.000122681 2.08135e-22)
(1.9995 -2.00391e-05 8.6169e-22)
(1.99937 0.000113802 2.6032e-21)
(1.99923 0.000281419 0)
(1.99908 0.000485641 -4.46835e-22)
(1.99892 0.000729234 -1.80995e-21)
(1.99876 0.00101425 -4.60008e-22)
(1.9986 0.00134251 -9.31394e-22)
(1.99844 0.00171392 2.30847e-22)
(1.99829 0.00212898 -4.76445e-22)
(1.99815 0.00258451 -2.21091e-24)
(1.99803 0.00307821 -1.81755e-24)
(1.99793 0.00360513 2.43127e-22)
(1.99785 0.00415901 0)
(1.99781 0.00473195 0)
(1.9978 0.00531473 0)
(1.99783 0.00589692 1.23339e-22)
(1.9979 0.00646732 -1.22599e-22)
(1.99801 0.00701468 0)
(1.99816 0.0075273 2.33186e-22)
(1.99834 0.00799396 -2.36753e-22)
(1.99855 0.00840532 0)
(1.99879 0.00875354 0)
(1.99905 0.00903235 3.31199e-22)
(1.99932 0.0092376 -2.19492e-22)
(1.9996 0.00936728 -2.08791e-22)
(1.99987 0.00942121 4.11931e-22)
(2.00015 0.00940117 -2.03139e-22)
(2.0004 0.00931031 0)
(2.00065 0.009153 2.80842e-22)
(2.00088 0.00893462 -1.86271e-22)
(2.00108 0.00866091 -8.88155e-23)
(2.00127 0.00833797 1.72935e-22)
(2.00144 0.00797197 0)
(2.00158 0.00756877 8.20976e-23)
(2.00171 0.00713401 -1.58056e-22)
(2.00181 0.00667287 1.55899e-22)
(2.0019 0.00619003 -5.86898e-22)
(2.00198 0.00568971 3.15866e-22)
(2.00204 0.00517572 1.47015e-22)
(2.00209 0.00465015 7.03164e-23)
(2.00213 0.00411621 -7.03337e-23)
(2.00216 0.00357617 -6.91989e-23)
(2.00218 0.00303157 1.34386e-22)
(2.0022 0.00248373 -6.97746e-25)
(2.00221 0.00193361 -1.33601e-22)
(2.00222 0.00138196 6.52421e-23)
(2.00222 0.000829533 0)
(2.00223 0.000276377 0)
(2.00031 -3.48749e-05 0)
(2.0003 -0.000103278 0)
(2.00028 -0.000168555 -1.93106e-22)
(2.00024 -0.000228764 0)
(2.0002 -0.000281669 0)
(2.00014 -0.000324929 9.52762e-25)
(2.00008 -0.000356084 0)
(2 -0.000372488 -1.00623e-22)
(1.9999 -0.00037129 -1.01916e-22)
(1.99979 -0.000349406 1.01778e-22)
(1.99967 -0.000303392 -4.17725e-22)
(1.99953 -0.000229817 4.17739e-22)
(1.99938 -0.000125103 0)
(1.99922 1.47976e-05 -2.59212e-21)
(1.99904 0.000193313 -4.25887e-22)
(1.99885 0.000413328 4.67474e-22)
(1.99865 0.000679194 -2.71222e-21)
(1.99844 0.000993388 9.24551e-22)
(1.99823 0.00135875 -4.64356e-22)
(1.99803 0.00177546 0)
(1.99783 0.00224486 -4.82929e-22)
(1.99764 0.00276345 0)
(1.99748 0.00332919 -2.46425e-22)
(1.99734 0.00393654 2.46367e-22)
(1.99724 0.00457837 -2.49085e-22)
(1.99718 0.00524539 1.23165e-22)
(1.99717 0.00592664 0)
(1.99721 0.00660944 -1.23341e-22)
(1.99729 0.00728008 3.72285e-22)
(1.99743 0.00792484 1.2362e-22)
(1.99763 0.00852916 -2.44661e-22)
(1.99786 0.00907915 -1.16574e-22)
(1.99814 0.00956336 2.36529e-22)
(1.99845 0.0099721 0)
(1.99879 0.010298 1.10047e-22)
(1.99914 0.0105361 -5.68816e-24)
(1.9995 0.0106843 -5.9175e-24)
(1.99986 0.0107429 -2.09885e-22)
(2.00021 0.0107143 1.97702e-22)
(2.00054 0.0106029 -2.94986e-22)
(2.00085 0.0104145 9.41772e-23)
(2.00114 0.0101557 0)
(2.00141 0.00983395 8.87595e-23)
(2.00164 0.00945661 -8.61053e-23)
(2.00185 0.00903116 0)
(2.00203 0.00856467 0)
(2.00219 0.0080638 1.57955e-22)
(2.00232 0.00753465 -2.84597e-24)
(2.00243 0.00698249 -1.49942e-23)
(2.00252 0.00641227 5.83677e-22)
(2.00259 0.00582757 1.43368e-22)
(2.00265 0.00523159 6.89352e-23)
(2.0027 0.0046277 6.78385e-23)
(2.00273 0.00401807 -1.02736e-24)
(2.00276 0.00340434 -6.82403e-23)
(2.00278 0.0027879 0)
(2.00279 0.00216961 0)
(2.0028 0.00155019 -1.29042e-22)
(2.00281 0.000930328 0)
(2.00281 0.000309864 0)
(2.00038 -4.29308e-05 0)
(2.00037 -0.000127199 0)
(2.00035 -0.000208212 3.34282e-25)
(2.00031 -0.000283977 9.56929e-23)
(2.00025 -0.000352119 0)
(2.00019 -0.000410186 9.77553e-23)
(2.00011 -0.000455512 9.86504e-23)
(2.00001 -0.000485216 1.09857e-24)
(1.9999 -0.000496155 1.00224e-24)
(1.99976 -0.000484929 -1.02369e-22)
(1.99962 -0.000447672 1.0237e-22)
(1.99945 -0.000380256 1.04325e-22)
(1.99926 -0.000278551 -2.12138e-22)
(1.99906 -0.000137921 -1.72496e-21)
(1.99883 4.65845e-05 -4.46761e-22)
(1.9986 0.000277797 1.78342e-21)
(1.99835 0.000561529 1.36935e-21)
(1.99809 0.000901418 -9.26697e-22)
(1.99782 0.00130123 9.41932e-22)
(1.99756 0.0017618 1.44683e-21)
(1.99731 0.00228572 2.3856e-22)
(1.99707 0.00286912 -3.34763e-24)
(1.99686 0.0035107 -2.50189e-22)
(1.99668 0.00420433 5.02329e-22)
(1.99654 0.00494205 -2.52128e-22)
(1.99646 0.00571303 1.25872e-22)
(1.99643 0.00650423 0)
(1.99647 0.00730039 1.28265e-22)
(1.99658 0.00808472 1.30825e-22)
(1.99676 0.00884043 -1.24904e-22)
(1.997 0.00954934 1.20324e-22)
(1.9973 0.0101944 1.20375e-22)
(1.99766 0.0107614 1.15407e-22)
(1.99806 0.0112386 -2.35523e-22)
(1.99849 0.011617 0)
(1.99893 0.0118911 -2.17752e-22)
(1.99939 0.0120587 6.48802e-24)
(1.99984 0.0121207 2.1113e-22)
(2.00029 0.0120807 -1.97861e-22)
(2.0007 0.0119447 6.57236e-24)
(2.0011 0.0117201 3.2962e-24)
(2.00146 0.0114154 -2.69191e-22)
(2.00178 0.0110398 1.78648e-22)
(2.00207 0.0106023 -8.4431e-23)
(2.00233 0.0101119 -8.16273e-23)
(2.00255 0.00957713 -3.13762e-22)
(2.00274 0.00900563 9.23099e-22)
(2.00289 0.00840436 8.64241e-25)
(2.00303 0.00777945 1.18497e-21)
(2.00313 0.00713698 4.22822e-22)
(2.00322 0.00647961 -7.20191e-23)
(2.00329 0.00581183 -1.37816e-22)
(2.00334 0.00513701 -6.63483e-23)
(2.00338 0.0044572 6.63692e-23)
(2.00341 0.00377417 -6.56072e-23)
(2.00343 0.00308918 -6.37927e-23)
(2.00345 0.00240311 6.38137e-23)
(2.00346 0.00171649 8.9766e-25)
(2.00346 0.00102988 6.29182e-23)
(2.00346 0.000342922 0)
(2.00048 -5.25675e-05 0)
(2.00046 -0.000155844 0)
(2.00043 -0.000255831 0)
(2.00039 -0.000350511 -9.49855e-23)
(2.00033 -0.000437443 9.49842e-23)
(2.00025 -0.000514103 -9.65438e-23)
(2.00015 -0.000577659 9.65452e-23)
(2.00004 -0.000625042 0)
(1.9999 -0.00065284 0)
(1.99975 -0.00065729 1.0154e-22)
(1.99957 -0.000634152 -2.04718e-22)
(1.99937 -0.000578645 -1.16566e-24)
(1.99914 -0.000485806 4.28419e-22)
(1.99889 -0.0003506 1.29979e-21)
(1.99862 -0.000166355 8.86254e-22)
(1.99833 7.06333e-05 -8.8791e-22)
(1.99802 0.000366604 -9.18967e-22)
(1.9977 0.000727402 5.78075e-22)
(1.99737 0.00115792 -4.76349e-22)
(1.99704 0.00165993 1.88029e-23)
(1.99672 0.00223788 -9.8932e-22)
(1.99642 0.00288823 1.99261e-21)
(1.99615 0.00360978 -2.51337e-22)
(1.99591 0.00439644 0)
(1.99573 0.00523938 0)
(1.99562 0.00612623 0)
(1.99558 0.00704141 0)
(1.99562 0.00796664 -1.28285e-22)
(1.99575 0.00888128 1.34574e-22)
(1.99597 0.00976475 1.05572e-24)
(1.99627 0.0105943 0)
(1.99665 0.0113488 1.1992e-22)
(1.9971 0.0120108 -1.24929e-22)
(1.9976 0.0125658 1.19463e-22)
(1.99814 0.013003 2.26855e-22)
(1.9987 0.0133163 -3.39141e-22)
(1.99927 0.0135037 -2.12578e-22)
(1.99984 0.0135669 1.07765e-22)
(2.00038 0.0135113 0)
(2.0009 0.0133449 9.71713e-23)
(2.00138 0.0130774 3.76252e-25)
(2.00182 0.0127195 6.36232e-25)
(2.00222 0.0122827 -8.64878e-23)
(2.00257 0.0117779 -1.6384e-22)
(2.00288 0.0112161 2.46471e-22)
(2.00314 0.010607 -6.16662e-22)
(2.00336 0.00995951 6.16666e-22)
(2.00354 0.00928195 -1.18879e-21)
(2.0037 0.00858068 1.27186e-21)
(2.00382 0.00786267 -4.22992e-22)
(2.00392 0.00713039 0)
(2.00399 0.00638929 6.58836e-23)
(2.00405 0.0056425 -6.59058e-23)
(2.0041 0.00489202 0)
(2.00413 0.00413962 0)
(2.00415 0.00338641 0)
(2.00417 0.00263321 0)
(2.00418 0.00188019 0)
(2.00418 0.00112781 0)
(2.00418 0.000375411 0)
(2.00059 -6.3842e-05 0)
(2.00057 -0.000189401 0)
(2.00054 -0.000311726 0)
(2.00049 -0.000428861 0)
(2.00042 -0.000538335 0)
(2.00033 -0.000637609 9.52473e-23)
(2.00022 -0.000723769 -1.9156e-22)
(2.00009 -0.000793586 9.63241e-23)
(1.99993 -0.000843415 -9.8977e-23)
(1.99975 -0.000869141 -1.57874e-24)
(1.99954 -0.000866142 1.00579e-22)
(1.9993 -0.00082905 0)
(1.99903 -0.000751956 -2.1414e-22)
(1.99874 -0.000629221 -6.57102e-22)
(1.99841 -0.000453018 4.38992e-21)
(1.99806 -0.000217223 -1.77322e-21)
(1.99769 8.45446e-05 9.16154e-22)
(1.9973 0.000460247 5.69076e-25)
(1.99689 0.000916521 5.9671e-22)
(1.99648 0.00145661 -9.61329e-22)
(1.99608 0.00208712 -2.00274e-21)
(1.9957 0.00280612 8.10622e-24)
(1.99535 0.00361193 0)
(1.99505 0.00449917 -2.62564e-22)
(1.99481 0.00545835 -2.3667e-24)
(1.99465 0.00647527 2.64728e-22)
(1.99459 0.00753155 0)
(1.99463 0.00860518 0)
(1.99478 0.00967081 -1.29572e-22)
(1.99505 0.0107029 -2.60642e-22)
(1.99542 0.011673 2.55884e-22)
(1.99589 0.0125547 -1.30523e-22)
(1.99644 0.0133264 0)
(1.99706 0.0139703 -3.56916e-22)
(1.99774 0.0144735 1.19427e-22)
(1.99843 0.0148291 2.20637e-22)
(1.99914 0.0150356 -2.22016e-22)
(1.99984 0.0150964 1.04674e-22)
(2.00051 0.0150191 9.68925e-23)
(2.00114 0.0148145 -2.94675e-22)
(2.00172 0.0144951 5.13868e-25)
(2.00225 0.0140747 8.04131e-25)
(2.00273 0.0135674 8.64128e-23)
(2.00314 0.0129867 1.25821e-24)
(2.0035 0.0123453 0)
(2.00381 0.0116549 3.65755e-24)
(2.00406 0.0109252 6.03886e-22)
(2.00427 0.0101664 -1.13526e-21)
(2.00445 0.00938434 3.99012e-23)
(2.00458 0.00858742 -6.88437e-23)
(2.00469 0.00777799 0)
(2.00477 0.006962 6.40466e-23)
(2.00484 0.00614229 -6.40703e-23)
(2.00488 0.00532079 0)
(2.00491 0.00449917 0)
(2.00494 0.00367827 0)
(2.00495 0.00285875 5.97653e-23)
(2.00496 0.00204047 -5.97859e-23)
(2.00497 0.00122364 0)
(2.00497 0.000407168 0)
(2.00073 -7.6762e-05 0)
(2.00071 -0.000227889 0)
(2.00067 -0.000375975 0)
(2.00061 -0.000519148 0)
(2.00054 -0.000655024 0)
(2.00043 -0.000781097 -9.37758e-23)
(2.00031 -0.000894442 1.88674e-22)
(2.00016 -0.000991745 1.31453e-24)
(1.99998 -0.00106918 1.50032e-24)
(1.99977 -0.00112231 1.01111e-22)
(1.99953 -0.00114613 -3.00177e-22)
(1.99925 -0.00113474 -2.06093e-24)
(1.99894 -0.00108125 1.03397e-22)
(1.9986 -0.000979022 -2.1809e-22)
(1.99821 -0.000819563 -1.30734e-21)
(1.9978 -0.000593789 -1.33902e-21)
(1.99735 -0.000294379 -1.05143e-23)
(1.99687 8.83716e-05 1.06941e-22)
(1.99638 0.000563743 3.56423e-22)
(1.99588 0.00113731 -1.48194e-21)
(1.99538 0.00181772 -1.56225e-21)
(1.9949 0.00260609 -5.11502e-22)
(1.99445 0.00350027 0)
(1.99407 0.00449649 -2.68933e-22)
(1.99376 0.00558463 -3.00974e-24)
(1.99355 0.00674864 2.71717e-22)
(1.99345 0.00796687 1.39299e-22)
(1.99348 0.00921284 0)
(1.99365 0.0104551 2.77121e-22)
(1.99397 0.011662 -4.07466e-22)
(1.99442 0.0127975 1.33751e-22)
(1.99499 0.0138285 -2.56949e-22)
(1.99568 0.014728 3.78156e-22)
(1.99645 0.0154737 -7.69973e-24)
(1.99728 0.0160508 -1.23964e-22)
(1.99814 0.0164514 1.13759e-22)
(1.99901 0.016675 0)
(1.99986 0.0167275 0)
(2.00067 0.0166197 -9.6739e-23)
(2.00143 0.016366 1.97932e-22)
(2.00213 0.0159831 9.27254e-23)
(2.00275 0.0154883 1.01372e-24)
(2.00331 0.014899 -1.6801e-22)
(2.00379 0.0142315 -2.36581e-22)
(2.00421 0.0135008 9.35418e-22)
(2.00456 0.0127202 -6.07374e-22)
(2.00485 0.0119013 2.8467e-22)
(2.00509 0.0110555 8.49788e-22)
(2.00528 0.0101881 -9.6657e-22)
(2.00543 0.00930892 -1.33729e-22)
(2.00554 0.00841996 0)
(2.00563 0.00752756 -6.20191e-23)
(2.00569 0.00663405 6.20472e-23)
(2.00574 0.00574137 0)
(2.00577 0.00485093 5.89586e-23)
(2.00579 0.00396319 -5.89805e-23)
(2.0058 0.0030786 0)
(2.00581 0.00219649 0)
(2.00582 0.00131681 0)
(2.00581 0.000438025 0)
(2.0009 -9.1274e-05 0)
(2.00087 -0.000271189 0)
(2.00083 -0.000448381 0)
(2.00077 -0.000621141 0)
(2.00068 -0.000787268 0)
(2.00057 -0.000944379 0)
(2.00043 -0.00108961 -9.33023e-23)
(2.00026 -0.00121965 -1.38488e-24)
(2.00006 -0.00133056 -9.78736e-23)
(1.99982 -0.0014177 9.44952e-23)
(1.99955 -0.00147567 -1.02114e-22)
(1.99924 -0.00149805 2.00241e-22)
(1.99888 -0.00147711 -2.09591e-22)
(1.99848 -0.0014049 -5.28191e-24)
(1.99803 -0.0012719 1.95584e-21)
(1.99754 -0.00106686 -4.53365e-22)
(1.99701 -0.000780229 -9.32066e-22)
(1.99644 -0.000400442 -1.30643e-22)
(1.99585 8.51635e-05 -1.33735e-23)
(1.99523 0.000685447 1.49795e-21)
(1.99462 0.00141146 -6.14765e-23)
(1.99402 0.0022686 -2.65725e-22)
(1.99346 0.00325484 4.01862e-22)
(1.99296 0.00436905 1.38908e-22)
(1.99256 0.00560072 0)
(1.99227 0.00693207 1.43106e-22)
(1.99212 0.00833772 -1.39375e-22)
(1.99214 0.00978558 2.82767e-22)
(1.99233 0.0112368 -4.19418e-22)
(1.9927 0.0126512 4.13792e-22)
(1.99325 0.0139835 -1.38129e-22)
(1.99395 0.0151913 2.64263e-22)
(1.99479 0.0162405 -1.35559e-22)
(1.99574 0.0171037 3.74663e-22)
(1.99676 0.0177631 -9.49578e-24)
(1.99781 0.0182104 -3.54362e-22)
(1.99887 0.0184469 -2.17131e-22)
(1.9999 0.018482 2.17015e-22)
(2.00087 0.0183312 0)
(2.00178 0.0180141 9.63459e-23)
(2.0026 0.0175523 -9.10203e-23)
(2.00334 0.0169679 -8.52524e-23)
(2.00398 0.0162822 3.12045e-24)
(2.00454 0.0155148 0)
(2.00501 0.0146831 5.8475e-22)
(2.00541 0.0138031 -1.15123e-21)
(2.00573 0.0128872 -4.15002e-22)
(2.00599 0.0119473 -1.38145e-22)
(2.00619 0.0109893 6.46171e-23)
(2.00635 0.0100243 -4.40046e-22)
(2.00647 0.00905324 1.86828e-22)
(2.00656 0.00808299 -6.1212e-23)
(2.00662 0.00711507 0)
(2.00667 0.00615134 0)
(2.00669 0.00519279 0)
(2.00671 0.00423938 -5.61174e-23)
(2.00672 0.00329126 5.25393e-25)
(2.00672 0.0023472 5.56429e-23)
(2.00673 0.00140671 0)
(2.00672 0.000467788 0)
(2.00109 -0.000107263 -8.6778e-23)
(2.00107 -0.000318986 8.70595e-23)
(2.00102 -0.000528449 0)
(2.00095 -0.000734194 -8.84138e-23)
(2.00086 -0.000934297 8.84085e-23)
(2.00074 -0.00112659 0)
(2.00058 -0.00130843 9.15054e-23)
(2.0004 -0.00147656 1.45018e-24)
(2.00018 -0.00162706 -1.87588e-22)
(1.99992 -0.00175517 -9.84398e-23)
(1.99961 -0.00185517 9.4407e-23)
(1.99926 -0.00192022 9.86953e-23)
(1.99885 -0.0019418 0)
(1.99839 -0.00191061 0)
(1.99788 -0.00181583 -2.1756e-22)
(1.99731 -0.00164413 -6.7219e-22)
(1.99668 -0.00138308 9.12619e-22)
(1.99601 -0.00101888 -7.19563e-22)
(1.9953 -0.000534822 -1.53699e-23)
(1.99455 8.23878e-05 1.02275e-21)
(1.9938 0.000847038 3.61803e-21)
(1.99306 0.00177037 -5.43112e-22)
(1.99235 0.00285144 4.0783e-22)
(1.99172 0.00409286 1.3957e-22)
(1.99119 0.00548451 0)
(1.99081 0.00700716 -1.43213e-22)
(1.99059 0.00863127 0)
(1.99058 0.010318 1.46856e-22)
(1.99078 0.0120186 -1.04469e-24)
(1.99122 0.0136825 -5.82197e-22)
(1.99187 0.0152511 8.60396e-22)
(1.99273 0.0166703 -7.66231e-24)
(1.99376 0.0178964 -2.72475e-22)
(1.99493 0.0188955 3.53068e-24)
(1.99617 0.0196461 -1.16635e-22)
(1.99746 0.02014 3.58575e-22)
(1.99874 0.0203818 0)
(1.99998 0.0203861 0)
(2.00114 0.0201749 -1.96239e-22)
(2.00221 0.0197749 1.03256e-23)
(2.00318 0.0192143 3.66435e-22)
(2.00403 0.018521 3.2025e-24)
(2.00476 0.0177212 3.79669e-24)
(2.00539 0.0168384 6.10529e-22)
(2.00592 0.0158923 -3.52353e-21)
(2.00636 0.0149018 1.42724e-21)
(2.00671 0.013879 2.7522e-22)
(2.00699 0.0128379 0)
(2.0072 0.0117844 0)
(2.00736 0.0107297 2.49615e-22)
(2.00748 0.00967415 5.87417e-23)
(2.00757 0.00862472 -5.87661e-23)
(2.00762 0.00758209 0)
(2.00766 0.00654779 -5.5227e-23)
(2.00768 0.00552227 5.52511e-23)
(2.00769 0.00450489 0)
(2.0077 0.00349522 0)
(2.0077 0.0024915 5.29754e-23)
(2.00769 0.00149265 -5.3001e-23)
(2.00769 0.00049623 0)
(2.00132 -0.000124577 0)
(2.0013 -0.000370804 0)
(2.00125 -0.000615366 8.56551e-23)
(2.00117 -0.00085721 -8.56472e-23)
(2.00107 -0.00109477 0)
(2.00094 -0.0013262 0)
(2.00078 -0.00154921 -8.94875e-23)
(2.00058 -0.00176074 -1.50715e-24)
(2.00034 -0.00195703 1.83736e-22)
(2.00005 -0.00213332 -9.27458e-23)
(1.99972 -0.00228375 -1.94039e-22)
(1.99932 -0.00240111 9.22185e-23)
(1.99887 -0.00247622 1.99197e-22)
(1.99835 -0.00249853 -2.11154e-22)
(1.99777 -0.00245568 -1.29079e-21)
(1.99711 -0.00233227 2.18061e-22)
(1.99639 -0.00211267 -4.67187e-22)
(1.9956 -0.00178012 1.07071e-21)
(1.99475 -0.00131316 -4.84716e-22)
(1.99386 -0.000693036 -1.0175e-21)