/*--------------------------------*- C++ -*----------------------------------*\
  =========                 |
  \\      /  F ield         | OpenFOAM: The Open Source CFD Toolbox
   \\    /   O peration     | Website:  https://openfoam.org
    \\  /    A nd           | Version:  12
     \\/     M anipulation  |
\*---------------------------------------------------------------------------*/
FoamFile
{
    format      ascii;
    class       volScalarField;
    location    "200";
    object      k;
}
// * * * * * * * * * * * * * * * * * * * * * * * * * * * * * * * * * * * * * //

dimensions      [0 2 -2 0 0 0 0];

internalField   nonuniform List<scalar> 
16227
(
0.00914646
0.00914648
0.00914647
0.00914651
0.0091465
0.00914654
0.00914653
0.00914651
0.00914651
0.00914653
0.00914657
0.00914659
0.00914665
0.00914665
0.00914665
0.00914665
0.00914665
0.00914665
0.00914665
0.00914665
0.00914665
0.00914665
0.00914665
0.00914665
0.00914665
0.00914665
0.00914665
0.00914666
0.00914667
0.00914664
0.00914665
0.00914664
0.00914665
0.00914665
0.00914665
0.00914665
0.00914665
0.00914665
0.00914665
0.00914665
0.00914665
0.00914665
0.00914665
0.00914665
0.00914665
0.00914665
0.00914665
0.00914663
0.00914662
0.00914662
0.00914662
0.00914661
0.00914654
0.00914654
0.00914649
0.00914649
0.00914651
0.00914649
0.00914647
0.00914646
0.00848122
0.00848124
0.00848123
0.00848127
0.00848127
0.00848131
0.0084813
0.00848127
0.00848128
0.00848129
0.00848135
0.00848137
0.00848151
0.00848157
0.00848159
0.00848159
0.00848158
0.00848158
0.00848158
0.00848158
0.0084816
0.00848161
0.00848161
0.00848161
0.00848161
0.00848161
0.00848161
0.0084816
0.00848158
0.00848153
0.00848158
0.0084816
0.0084816
0.0084816
0.0084816
0.00848159
0.00848158
0.00848158
0.00848158
0.00848158
0.00848158
0.00848158
0.00848158
0.00848157
0.00848157
0.00848155
0.00848155
0.00848155
0.00848156
0.00848154
0.00848151
0.00848146
0.00848135
0.00848133
0.00848129
0.00848127
0.00848131
0.00848123
0.00848125
0.00848122
0.00790075
0.00790077
0.00790077
0.00790079
0.00790078
0.00790088
0.00790083
0.00790082
0.00790083
0.00790084
0.00790088
0.0079009
0.00790115
0.00790122
0.00790123
0.00790124
0.00790123
0.00790123
0.00790125
0.0079012
0.00790124
0.00790124
0.00790124
0.00790124
0.00790123
0.00790123
0.00790123
0.00790123
0.00790122
0.00790114
0.0079012
0.00790121
0.00790121
0.00790121
0.00790122
0.00790122
0.00790122
0.00790121
0.0079012
0.0079012
0.0079012
0.00790121
0.0079012
0.00790119
0.00790119
0.00790119
0.00790118
0.00790119
0.00790118
0.00790116
0.00790112
0.00790092
0.00790085
0.00790084
0.00790082
0.00790081
0.00790085
0.00790075
0.00790077
0.00790074
0.00739024
0.00739026
0.00739027
0.00739028
0.00739029
0.00739035
0.00739036
0.00739032
0.00739033
0.00739033
0.00739038
0.00739044
0.0073907
0.00739078
0.00739079
0.00739081
0.00739082
0.00739083
0.00739077
0.00739064
0.00739075
0.00739079
0.00739078
0.00739078
0.00739078
0.00739077
0.00739076
0.00739075
0.00739072
0.00739063
0.0073907
0.00739072
0.00739071
0.00739071
0.00739071
0.00739071
0.00739072
0.00739071
0.00739072
0.00739072
0.00739072
0.00739072
0.00739072
0.00739073
0.00739072
0.00739072
0.00739073
0.00739073
0.00739073
0.00739071
0.00739059
0.0073904
0.0073903
0.00739032
0.00739032
0.00739034
0.00739032
0.00739024
0.00739025
0.00739023
0.00693811
0.00693812
0.00693813
0.00693815
0.00693815
0.00693821
0.00693825
0.00693819
0.0069382
0.00693821
0.00693825
0.00693831
0.00693856
0.00693869
0.00693871
0.00693871
0.00693871
0.00693869
0.00693847
0.0069384
0.00693859
0.00693865
0.00693864
0.00693862
0.0069386
0.00693858
0.00693857
0.00693855
0.00693852
0.00693841
0.00693849
0.00693851
0.00693851
0.0069385
0.0069385
0.0069385
0.00693851
0.00693852
0.00693853
0.00693853
0.00693855
0.00693856
0.00693856
0.00693857
0.00693857
0.00693859
0.00693859
0.0069386
0.0069386
0.00693852
0.00693829
0.00693818
0.00693811
0.00693814
0.00693817
0.00693822
0.00693816
0.00693809
0.00693809
0.00693807
0.00653514
0.00653516
0.00653515
0.00653517
0.00653517
0.00653523
0.00653527
0.00653522
0.00653521
0.00653521
0.00653522
0.00653526
0.00653538
0.00653567
0.00653574
0.00653575
0.00653575
0.00653564
0.0065354
0.00653535
0.00653556
0.00653561
0.00653559
0.00653555
0.00653553
0.00653551
0.00653548
0.00653545
0.0065354
0.00653528
0.00653536
0.00653537
0.00653537
0.00653537
0.00653537
0.00653538
0.0065354
0.00653541
0.00653542
0.00653544
0.00653546
0.00653547
0.00653549
0.00653552
0.00653553
0.00653555
0.00653556
0.00653558
0.00653559
0.00653545
0.00653522
0.00653512
0.00653509
0.00653514
0.00653519
0.00653519
0.00653514
0.00653508
0.00653508
0.00653507
0.00617393
0.00617394
0.00617394
0.00617396
0.00617396
0.006174
0.00617405
0.00617404
0.006174
0.006174
0.00617399
0.00617399
0.0061741
0.00617437
0.0061745
0.00617452
0.00617449
0.00617419
0.00617406
0.00617405
0.00617426
0.00617429
0.00617425
0.0061742
0.00617416
0.00617411
0.00617407
0.00617403
0.00617397
0.00617384
0.00617391
0.00617392
0.00617391
0.00617392
0.00617393
0.00617394
0.00617396
0.00617399
0.00617401
0.00617405
0.00617408
0.00617411
0.00617414
0.00617417
0.00617421
0.00617424
0.00617426
0.00617429
0.00617423
0.00617398
0.00617387
0.0061738
0.00617381
0.00617389
0.00617391
0.00617392
0.00617387
0.00617382
0.00617384
0.00617382
0.00584848
0.00584848
0.00584848
0.0058485
0.0058485
0.00584853
0.00584858
0.00584858
0.00584854
0.00584851
0.0058485
0.00584846
0.00584852
0.00584865
0.00584894
0.00584902
0.00584895
0.00584861
0.00584849
0.00584846
0.00584867
0.00584869
0.00584862
0.00584856
0.00584848
0.00584842
0.00584837
0.0058483
0.00584822
0.00584808
0.00584815
0.00584816
0.00584815
0.00584815
0.00584817
0.00584819
0.00584822
0.00584826
0.0058483
0.00584835
0.0058484
0.00584844
0.0058485
0.00584855
0.0058486
0.00584864
0.00584868
0.00584871
0.0058486
0.00584837
0.00584827
0.00584825
0.00584832
0.00584837
0.00584838
0.00584839
0.00584836
0.00584832
0.00584833
0.00584831
0.00555385
0.00555386
0.00555386
0.00555387
0.00555387
0.0055539
0.00555394
0.00555393
0.00555393
0.00555388
0.00555384
0.00555379
0.00555381
0.00555391
0.00555425
0.00555434
0.00555418
0.00555385
0.00555373
0.00555369
0.00555388
0.00555387
0.00555378
0.00555368
0.00555359
0.00555351
0.00555342
0.00555334
0.00555325
0.00555308
0.00555314
0.00555315
0.00555314
0.00555315
0.00555317
0.0055532
0.00555324
0.0055533
0.00555336
0.00555342
0.00555349
0.00555357
0.00555364
0.00555371
0.00555377
0.00555385
0.0055539
0.00555386
0.00555363
0.00555353
0.00555349
0.00555355
0.00555359
0.00555365
0.00555368
0.00555369
0.00555367
0.00555363
0.00555364
0.00555364
0.00528599
0.005286
0.00528599
0.005286
0.00528599
0.00528602
0.00528606
0.00528604
0.00528603
0.00528602
0.00528596
0.00528589
0.0052859
0.005286
0.00528626
0.00528634
0.00528602
0.00528581
0.0052857
0.00528566
0.00528581
0.00528578
0.00528566
0.00528553
0.00528541
0.0052853
0.00528519
0.00528508
0.00528496
0.00528479
0.00528484
0.00528483
0.00528482
0.00528484
0.00528486
0.00528491
0.00528497
0.00528504
0.00528513
0.00528521
0.0052853
0.0052854
0.0052855
0.0052856
0.00528569
0.00528578
0.00528584
0.00528579
0.00528556
0.00528549
0.00528552
0.00528557
0.00528562
0.00528569
0.00528572
0.00528575
0.00528573
0.00528571
0.00528572
0.00528572
0.00504148
0.00504149
0.00504149
0.00504149
0.0050415
0.00504151
0.00504154
0.00504152
0.0050415
0.00504148
0.00504144
0.00504134
0.00504129
0.00504134
0.00504144
0.00504164
0.00504133
0.00504115
0.00504103
0.00504096
0.00504103
0.005041
0.00504086
0.0050407
0.00504055
0.0050404
0.00504025
0.00504012
0.00503999
0.00503979
0.00503982
0.00503981
0.00503981
0.00503982
0.00503986
0.00503992
0.00504
0.00504009
0.0050402
0.00504032
0.00504044
0.00504056
0.00504069
0.00504081
0.00504093
0.00504103
0.00504104
0.00504096
0.00504085
0.00504082
0.00504088
0.00504094
0.00504101
0.00504109
0.00504113
0.00504116
0.00504116
0.00504113
0.00504115
0.00504115
0.00481749
0.0048175
0.00481749
0.0048175
0.00481749
0.00481751
0.00481752
0.00481752
0.00481749
0.00481746
0.00481741
0.00481733
0.00481724
0.00481722
0.00481728
0.00481743
0.00481719
0.004817
0.00481684
0.00481672
0.00481662
0.00481667
0.00481654
0.00481634
0.00481615
0.00481596
0.00481578
0.00481562
0.00481545
0.00481523
0.00481526
0.00481525
0.00481524
0.00481526
0.00481531
0.00481538
0.00481548
0.00481561
0.00481574
0.00481588
0.00481604
0.0048162
0.00481635
0.00481652
0.00481665
0.00481674
0.00481667
0.00481668
0.00481666
0.00481667
0.00481674
0.00481682
0.0048169
0.00481699
0.00481704
0.00481708
0.00481708
0.00481707
0.00481709
0.00481709
0.00461159
0.0046116
0.00461159
0.0046116
0.00461159
0.00461161
0.00461161
0.0046116
0.00461157
0.00461153
0.00461148
0.00461139
0.0046113
0.0046112
0.00461116
0.00461114
0.00461108
0.00461093
0.00461074
0.00461057
0.0046104
0.00461045
0.00461028
0.00461005
0.0046098
0.00460957
0.00460936
0.00460916
0.00460897
0.00460872
0.00460873
0.0046087
0.0046087
0.00460873
0.00460879
0.0046089
0.00460902
0.00460917
0.00460934
0.00460952
0.00460971
0.00460991
0.0046101
0.00461029
0.00461044
0.00461052
0.00461049
0.00461057
0.00461056
0.0046106
0.00461069
0.0046108
0.00461089
0.00461098
0.00461105
0.00461109
0.00461111
0.00461111
0.00461113
0.00461113
0.00442174
0.00442175
0.00442174
0.00442174
0.00442173
0.00442174
0.00442174
0.00442173
0.00442169
0.00442165
0.00442159
0.00442149
0.00442139
0.00442129
0.00442116
0.00442111
0.00442106
0.0044209
0.00442069
0.00442048
0.00442026
0.00442026
0.00442005
0.00441976
0.00441947
0.00441919
0.00441893
0.00441869
0.00441846
0.00441819
0.00441818
0.00441815
0.00441814
0.00441818
0.00441827
0.00441839
0.00441855
0.00441873
0.00441894
0.00441917
0.0044194
0.00441963
0.00441986
0.00442007
0.00442019
0.00442026
0.00442036
0.00442046
0.0044205
0.00442058
0.00442069
0.00442081
0.00442092
0.00442102
0.0044211
0.00442116
0.00442117
0.00442118
0.00442121
0.00442121
0.00424617
0.00424618
0.00424617
0.00424617
0.00424616
0.00424617
0.00424617
0.00424614
0.00424611
0.00424605
0.00424599
0.00424588
0.00424577
0.00424565
0.00424552
0.00424543
0.00424536
0.00424517
0.00424491
0.00424466
0.00424439
0.00424433
0.00424407
0.00424373
0.00424338
0.00424305
0.00424274
0.00424245
0.00424218
0.00424189
0.00424186
0.00424182
0.00424182
0.00424187
0.00424197
0.00424212
0.00424232
0.00424255
0.0042428
0.00424307
0.00424334
0.00424363
0.00424389
0.0042441
0.00424416
0.00424433
0.00424449
0.00424464
0.00424473
0.00424483
0.00424498
0.00424511
0.00424523
0.00424535
0.00424543
0.0042455
0.00424553
0.00424555
0.00424557
0.00424558
0.00408337
0.00408337
0.00408337
0.00408337
0.00408336
0.00408336
0.00408336
0.00408333
0.00408329
0.00408323
0.00408315
0.00408305
0.00408293
0.00408279
0.00408264
0.00408253
0.00408243
0.00408221
0.00408191
0.0040816
0.0040813
0.00408112
0.00408084
0.00408044
0.00408003
0.00407964
0.00407927
0.00407893
0.00407862
0.00407829
0.00407824
0.00407819
0.00407819
0.00407826
0.00407839
0.00407858
0.00407882
0.0040791
0.00407939
0.00407971
0.00408004
0.00408036
0.00408067
0.00408088
0.004081
0.0040812
0.00408141
0.00408155
0.00408169
0.00408186
0.00408203
0.00408218
0.00408232
0.00408245
0.00408255
0.00408262
0.00408266
0.00408268
0.00408271
0.00408272
0.00393202
0.00393203
0.00393203
0.00393202
0.00393202
0.00393202
0.00393201
0.00393198
0.00393194
0.00393188
0.0039318
0.00393168
0.00393155
0.0039314
0.00393123
0.0039311
0.00393097
0.0039307
0.00393037
0.00393
0.00392962
0.00392926
0.00392902
0.0039286
0.00392813
0.00392766
0.00392722
0.00392683
0.00392647
0.0039261
0.00392602
0.00392597
0.00392598
0.00392606
0.00392622
0.00392645
0.00392674
0.00392706
0.00392742
0.00392779
0.00392818
0.00392854
0.00392882
0.00392904
0.00392929
0.00392956
0.00392981
0.00392998
0.00393015
0.00393036
0.00393055
0.00393073
0.00393088
0.00393102
0.00393112
0.0039312
0.00393125
0.00393128
0.00393131
0.00393132
0.003791
0.003791
0.003791
0.003791
0.00379099
0.003791
0.00379099
0.00379095
0.00379091
0.00379085
0.00379076
0.00379064
0.0037905
0.00379034
0.00379015
0.00378999
0.00378983
0.00378955
0.00378916
0.00378873
0.00378829
0.00378782
0.00378754
0.00378707
0.00378651
0.00378597
0.00378546
0.00378499
0.00378457
0.00378417
0.00378407
0.003784
0.00378401
0.00378412
0.00378432
0.0037846
0.00378494
0.00378532
0.00378575
0.00378618
0.00378662
0.003787
0.00378724
0.00378757
0.00378791
0.00378825
0.00378853
0.00378874
0.00378896
0.00378919
0.00378941
0.0037896
0.00378976
0.00378991
0.00379003
0.00379012
0.00379017
0.00379021
0.00379024
0.00379025
0.0036593
0.00365931
0.0036593
0.0036593
0.0036593
0.0036593
0.00365929
0.00365926
0.00365922
0.00365915
0.00365906
0.00365894
0.00365878
0.00365861
0.00365841
0.00365822
0.00365803
0.00365771
0.0036573
0.00365682
0.00365631
0.00365578
0.00365537
0.00365485
0.00365421
0.00365357
0.00365297
0.00365243
0.00365195
0.0036515
0.00365136
0.00365129
0.00365131
0.00365145
0.00365169
0.00365203
0.00365243
0.00365289
0.00365337
0.00365387
0.00365437
0.00365479
0.00365509
0.00365549
0.0036559
0.00365627
0.00365655
0.00365682
0.00365709
0.00365736
0.00365759
0.0036578
0.00365798
0.00365815
0.00365827
0.00365836
0.00365842
0.00365846
0.0036585
0.00365851
0.00353606
0.00353606
0.00353606
0.00353606
0.00353605
0.00353606
0.00353605
0.00353602
0.00353598
0.00353591
0.00353582
0.00353569
0.00353554
0.00353536
0.00353514
0.00353492
0.00353469
0.00353435
0.00353391
0.00353339
0.00353279
0.00353218
0.00353156
0.00353104
0.00353035
0.00352962
0.00352892
0.00352829
0.00352773
0.00352723
0.00352706
0.00352697
0.00352701
0.00352718
0.00352748
0.00352788
0.00352835
0.00352888
0.00352942
0.00352995
0.00353048
0.00353094
0.00353141
0.00353189
0.00353236
0.00353275
0.00353307
0.00353339
0.0035337
0.003534
0.00353425
0.00353447
0.00353466
0.00353483
0.00353497
0.00353507
0.00353513
0.00353518
0.00353522
0.00353523
0.00342049
0.0034205
0.0034205
0.0034205
0.00342049
0.0034205
0.0034205
0.00342047
0.00342043
0.00342036
0.00342028
0.00342015
0.00342
0.0034198
0.00341957
0.0034193
0.00341903
0.0034187
0.00341823
0.00341767
0.00341702
0.00341631
0.00341558
0.00341499
0.0034142
0.00341335
0.00341254
0.0034118
0.00341115
0.00341058
0.00341037
0.00341028
0.00341033
0.00341055
0.00341091
0.00341138
0.00341193
0.00341252
0.00341313
0.00341375
0.00341429
0.00341486
0.00341544
0.00341601
0.00341651
0.00341692
0.00341729
0.00341767
0.00341802
0.00341833
0.00341861
0.00341884
0.00341905
0.00341922
0.00341936
0.00341947
0.00341954
0.00341959
0.00341963
0.00341965
0.00331193
0.00331194
0.00331194
0.00331194
0.00331194
0.00331195
0.00331195
0.00331193
0.00331189
0.00331183
0.00331175
0.00331163
0.00331147
0.00331128
0.00331103
0.00331074
0.00331044
0.0033101
0.00330961
0.003309
0.0033083
0.00330752
0.00330669
0.00330597
0.00330509
0.00330411
0.00330317
0.00330231
0.00330156
0.00330092
0.00330065
0.00330054
0.00330062
0.00330088
0.00330131
0.00330187
0.00330248
0.00330315
0.00330386
0.00330458
0.0033052
0.00330587
0.00330654
0.00330716
0.0033077
0.00330815
0.00330857
0.00330899
0.00330936
0.00330969
0.00330998
0.00331023
0.00331044
0.00331063
0.00331077
0.00331088
0.00331096
0.00331101
0.00331106
0.00331107
0.00320977
0.00320978
0.00320978
0.00320979
0.00320979
0.0032098
0.00320981
0.00320979
0.00320976
0.00320971
0.00320963
0.00320951
0.00320937
0.00320918
0.00320893
0.00320864
0.00320831
0.00320794
0.00320744
0.0032068
0.00320605
0.0032052
0.0032043
0.00320338
0.00320252
0.00320139
0.0032003
0.0031993
0.00319844
0.0031977
0.00319738
0.00319727
0.00319737
0.00319768
0.00319818
0.00319883
0.00319943
0.00320019
0.00320095
0.00320176
0.00320256
0.00320334
0.00320408
0.00320472
0.00320528
0.0032058
0.00320629
0.00320674
0.00320714
0.00320748
0.00320778
0.00320804
0.00320826
0.00320845
0.0032086
0.00320871
0.00320879
0.00320885
0.00320889
0.00320891
0.00311347
0.00311348
0.00311348
0.00311349
0.0031135
0.00311352
0.00311353
0.00311352
0.0031135
0.00311346
0.00311339
0.00311328
0.00311315
0.00311296
0.00311273
0.00311242
0.00311206
0.00311166
0.00311117
0.00311054
0.00310976
0.00310886
0.00310789
0.0031074
0.00315265
0.0031515
0.00315031
0.00314922
0.00314827
0.00314747
0.00314712
0.003147
0.00314711
0.00314746
0.003148
0.00314868
0.00310269
0.00310313
0.00310402
0.00310495
0.00310586
0.00310673
0.00310752
0.00310819
0.0031088
0.00310938
0.00310991
0.00311039
0.0031108
0.00311116
0.00311147
0.00311174
0.00311196
0.00311215
0.0031123
0.00311242
0.0031125
0.00311256
0.0031126
0.00311262
0.00302255
0.00302256
0.00302257
0.00302259
0.0030226
0.00302262
0.00302264
0.00302264
0.00302263
0.0030226
0.00302255
0.00302245
0.00302233
0.00302216
0.00302194
0.00302164
0.00302127
0.00302084
0.00302035
0.00301975
0.00301897
0.00301807
0.00301759
0.00306049
0.00305744
0.00305635
0.00305497
0.00305369
0.00305258
0.00305164
0.0030512
0.00305104
0.00305115
0.00305153
0.00305213
0.00305282
0.00305541
0.00301198
0.00301264
0.00301366
0.00301466
0.00301559
0.00301642
0.00301713
0.00301779
0.00301841
0.00301897
0.00301946
0.00301989
0.00302026
0.00302057
0.00302084
0.00302106
0.00302126
0.00302141
0.00302152
0.00302161
0.00302166
0.0030217
0.00302172
0.00293659
0.0029366
0.00293661
0.00293663
0.00293665
0.00293668
0.00293671
0.00293672
0.00293672
0.00293671
0.00293667
0.0029366
0.00293649
0.00293635
0.00293614
0.00293587
0.00293552
0.0029351
0.00293461
0.00293404
0.0029333
0.00293244
0.00293242
0.00297093
0.00296803
0.00298851
0.00298699
0.00298557
0.00298436
0.00298334
0.00298287
0.00298268
0.00298278
0.00298314
0.00298372
0.00296279
0.00296502
0.00292587
0.00292637
0.00292746
0.00292851
0.00292947
0.00293032
0.00293109
0.00293181
0.00293246
0.00293304
0.00293354
0.00293397
0.00293434
0.00293465
0.00293492
0.00293514
0.00293534
0.00293549
0.0029356
0.00293568
0.00293573
0.00293578
0.00293579
0.00285519
0.0028552
0.00285522
0.00285524
0.00285527
0.00285531
0.00285535
0.00285537
0.00285539
0.00285539
0.00285537
0.00285532
0.00285524
0.00285512
0.00285495
0.00285471
0.0028544
0.00285401
0.00285353
0.00285299
0.00285234
0.00285164
0.00285217
0.00288662
0.00288392
0.00290247
0.00290073
0.00289924
0.00289803
0.0028971
0.00289662
0.00289639
0.00289636
0.00289655
0.00289685
0.00287806
0.00287979
0.00284457
0.00284489
0.00284598
0.00284705
0.00284801
0.0028489
0.00284972
0.00285048
0.00285114
0.00285172
0.00285223
0.00285266
0.00285302
0.00285334
0.0028536
0.00285382
0.002854
0.00285415
0.00285426
0.00285434
0.00285439
0.00285443
0.00285445
0.00277802
0.00277803
0.00277805
0.00277808
0.00277811
0.00277816
0.00277821
0.00277825
0.00277828
0.0027783
0.00277831
0.00277828
0.00277823
0.00277815
0.00277801
0.00277782
0.00277756
0.00277723
0.00277681
0.00277632
0.0027758
0.00277537
0.00277654
0.00280739
0.00280508
0.00282226
0.00282021
0.00281919
0.0028185
0.00281795
0.00281748
0.00281689
0.00281627
0.00281585
0.00281575
0.00279791
0.00279973
0.00276781
0.00276787
0.00276892
0.00276995
0.00277093
0.00277185
0.0027727
0.00277346
0.00277412
0.00277469
0.00277519
0.00277561
0.00277597
0.00277627
0.00277652
0.00277673
0.00277691
0.00277705
0.00277715
0.00277723
0.00277728
0.00277731
0.00277733
0.00270475
0.00270476
0.00270479
0.00270482
0.00270486
0.00270492
0.00270498
0.00270503
0.00270508
0.00270513
0.00270515
0.00270516
0.00270514
0.00270509
0.00270501
0.00270487
0.00270468
0.00270444
0.00270412
0.00270376
0.00270342
0.00270338
0.00270525
0.00273297
0.00273182
0.00274829
0.00274605
0.00274743
0.00274923
0.00275036
0.00274975
0.00274738
0.0027445
0.00274223
0.00274104
0.00272261
0.00272484
0.00269535
0.00269504
0.00269598
0.00269697
0.00269795
0.00269887
0.0026997
0.00270043
0.00270107
0.00270163
0.00270211
0.00270251
0.00270285
0.00270314
0.00270338
0.00270358
0.00270374
0.00270387
0.00270397
0.00270404
0.00270408
0.00270412
0.00270413
0.0026351
0.00263512
0.00263514
0.00263519
0.00263524
0.0026353
0.00263537
0.00263544
0.00263551
0.00263557
0.00263563
0.00263566
0.00263568
0.00263568
0.00263565
0.00263558
0.00263548
0.00263533
0.00263517
0.00263501
0.00263496
0.00263544
0.00263804
0.00266324
0.00266467
0.00268087
0.00268119
0.0026905
0.00270284
0.0027116
0.00270944
0.00269842
0.00268665
0.00267857
0.00267401
0.00265259
0.00265505
0.00262711
0.00262628
0.00262705
0.00262791
0.0026288
0.00262966
0.00263043
0.00263113
0.00263173
0.00263225
0.0026327
0.00263308
0.0026334
0.00263366
0.00263388
0.00263407
0.00263422
0.00263434
0.00263443
0.00263448
0.00263453
0.00263456
0.00263457
0.00256882
0.00256884
0.00256887
0.00256891
0.00256897
0.00256905
0.00256913
0.00256922
0.00256931
0.00256939
0.00256947
0.00256954
0.0025696
0.00256965
0.00256967
0.00256968
0.00256966
0.00256965
0.00256966
0.00256975
0.00257014
0.0025713
0.00257457
0.00259806
0.00260424
0.00262157
0.00263302
0.00267149
0.00273542
0.00278905
0.0027724
0.00270961
0.0026585
0.00263052
0.00261687
0.0025891
0.00259036
0.00256311
0.00256142
0.00256187
0.00256249
0.00256323
0.00256396
0.00256465
0.00256528
0.00256582
0.0025663
0.0025667
0.00256705
0.00256734
0.00256758
0.00256778
0.00256794
0.00256808
0.00256818
0.00256826
0.00256831
0.00256835
0.00256837
0.00256838
0.00250567
0.00250569
0.00250572
0.00250577
0.00250584
0.00250593
0.00250602
0.00250612
0.00250623
0.00250634
0.00250645
0.00250655
0.00250665
0.00250674
0.00250683
0.00250691
0.002507
0.00250711
0.00250732
0.00250771
0.00250863
0.0025106
0.00251461
0.00253753
0.0025508
0.00257356
0.00262267
0.00276994
0.00294329
0.00306374
0.00302001
0.00286727
0.00270362
0.00260828
0.00257231
0.0025336
0.00253072
0.00250347
0.00250032
0.0025002
0.00250048
0.00250098
0.00250155
0.00250212
0.00250264
0.00250312
0.00250353
0.00250389
0.00250419
0.00250444
0.00250465
0.00250482
0.00250496
0.00250508
0.00250517
0.00250524
0.00250528
0.0025053
0.00250532
0.00250533
0.00244543
0.00244545
0.00244549
0.00244555
0.00244562
0.00244572
0.00244583
0.00244594
0.00244607
0.0024462
0.00244633
0.00244647
0.00244661
0.00244675
0.00244689
0.00244705
0.00244723
0.00244749
0.00244789
0.00244859
0.00245009
0.0024529
0.00245767
0.0024816
0.00250453
0.00254251
0.00269553
0.00299331
0.0033997
0.00422866
0.00397515
0.00324197
0.00284247
0.00262355
0.00254127
0.00248757
0.00247628
0.00244809
0.0024428
0.00244179
0.00244163
0.00244181
0.00244217
0.00244259
0.002443
0.00244338
0.00244372
0.00244402
0.00244427
0.00244448
0.00244466
0.0024448
0.00244491
0.00244501
0.00244508
0.00244514
0.00244517
0.00244519
0.0024452
0.00244521
0.00238792
0.00238794
0.00238798
0.00238804
0.00238812
0.00238823
0.00238835
0.00238848
0.00238862
0.00238878
0.00238894
0.0023891
0.00238927
0.00238946
0.00238966
0.00238988
0.00239016
0.00239053
0.00239112
0.00239211
0.00239416
0.00239775
0.00240335
0.00242959
0.00246429
0.00253089
0.00286251
0.00336284
0.0048122
0.0049812
0.00301698
0.00266877
0.00252162
0.00245043
0.00242668
0.00239676
0.00238866
0.0023864
0.0023857
0.0023855
0.00238561
0.00238584
0.00238612
0.00238639
0.00238665
0.00238688
0.00238708
0.00238725
0.00238738
0.0023875
0.00238759
0.00238766
0.00238772
0.00238776
0.00238778
0.0023878
0.00238781
0.00238782
0.00233295
0.00233297
0.00233301
0.00233308
0.00233317
0.00233328
0.00233342
0.00233356
0.00233372
0.00233389
0.00233408
0.00233427
0.00233448
0.0023347
0.00233494
0.00233523
0.00233557
0.00233605
0.00233678
0.002338
0.00234048
0.00234475
0.00235144
0.0023806
0.00242855
0.00252871
0.00305849
0.00375826
0.00715313
0.0173789
0.00589502
0.00316635
0.00271638
0.00250956
0.00241992
0.00238156
0.0023491
0.00233774
0.00233385
0.00233252
0.00233189
0.00233171
0.00233173
0.00233186
0.00233202
0.00233218
0.00233234
0.00233248
0.00233259
0.00233269
0.00233277
0.00233283
0.00233288
0.00233292
0.00233294
0.00233295
0.00233296
0.00233297
0.00233297
0.00228036
0.00228038
0.00228043
0.0022805
0.0022806
0.00228072
0.00228086
0.00228102
0.00228119
0.00228138
0.00228159
0.0022818
0.00228204
0.0022823
0.00228258
0.00228291
0.00228331
0.00228385
0.00228467
0.00228604
0.00228876
0.00229372
0.00230201
0.00233439
0.00239681
0.00252835
0.00325466
0.0041944
0.00617276
0.0694031
0.0602489
0.0940674
0.00432753
0.00278828
0.00250608
0.00239233
0.0023402
0.00230437
0.00228968
0.00228385
0.00228185
0.00228074
0.00228025
0.00228006
0.00228002
0.00228006
0.00228012
0.0022802
0.00228028
0.00228034
0.00228039
0.00228043
0.00228046
0.00228049
0.0022805
0.00228052
0.00228051
0.00228051
0.00228051
0.00228051
0.00223
0.00223002
0.00223007
0.00223015
0.00223025
0.00223038
0.00223053
0.0022307
0.00223089
0.00223109
0.00223132
0.00223156
0.00223182
0.0022321
0.00223242
0.00223277
0.0022332
0.00223377
0.00223462
0.00223604
0.00223881
0.00224455
0.0022547
0.00229051
0.00237041
0.00252568
0.00341347
0.00493247
0.00687355
0.0149251
0.0213091
0.171094
0.00968546
0.0029174
0.00251341
0.00236297
0.00230165
0.00226167
0.00224397
0.00223612
0.00223341
0.00223183
0.00223104
0.00223062
0.00223042
0.00223033
0.0022303
0.0022303
0.00223031
0.00223032
0.00223033
0.00223033
0.00223033
0.00223033
0.00223033
0.00223032
0.00223031
0.0022303
0.00223029
0.00223029
0.00218173
0.00218176
0.00218181
0.00218189
0.002182
0.00218213
0.00218229
0.00218247
0.00218267
0.00218289
0.00218313
0.00218339
0.00218367
0.00218397
0.00218431
0.00218467
0.0021851
0.00218563
0.00218647
0.00218792
0.00219071
0.00219719
0.00220905
0.00224856
0.00235262
0.0025193
0.00367382
0.00677696
0.0107625
0.0115759
0.0114072
0.145491
0.0128008
0.00309648
0.00253078
0.00232772
0.002265
0.00222011
0.0022001
0.00219035
0.00218699
0.00218496
0.00218388
0.00218326
0.0021829
0.00218269
0.00218257
0.00218249
0.00218243
0.0021824
0.00218236
0.00218233
0.0021823
0.00218227
0.00218225
0.00218223
0.0021822
0.00218218
0.00218217
0.00218216
0.00213544
0.00213546
0.00213552
0.0021356
0.00213571
0.00213585
0.00213602
0.0021362
0.00213641
0.00213665
0.0021369
0.00213717
0.00213747
0.00213778
0.00213811
0.00213845
0.00213886
0.00213942
0.00214026
0.00214171
0.00214454
0.00215153
0.00216469
0.0022085
0.00233891
0.00256801
0.00559164
0.0413394
0.0943174
0.129253
0.070759
0.0718909
0.0108125
0.00325507
0.00256779
0.00228781
0.00223007
0.00217916
0.0021576
0.00214631
0.00214235
0.00213992
0.00213861
0.0021378
0.0021373
0.00213699
0.00213678
0.00213663
0.00213652
0.00213643
0.00213635
0.00213629
0.00213623
0.00213618
0.00213613
0.00213609
0.00213606
0.00213603
0.00213601
0.002136
0.00209099
0.00209101
0.00209107
0.00209116
0.00209127
0.00209142
0.00209159
0.00209178
0.002092
0.00209225
0.00209251
0.00209279
0.00209309
0.00209337
0.00209369
0.00209407
0.00209453
0.00209511
0.00209595
0.00209737
0.00210031
0.00210749
0.00212249
0.00217418
0.00233612
0.00337298
0.0607633
0.171383
0.131932
0.0799401
0.0440259
0.0384251
0.0081559
0.00339191
0.00262919
0.00225131
0.00219773
0.00213861
0.00211607
0.00210377
0.00209927
0.00209653
0.00209503
0.0020941
0.0020935
0.0020931
0.00209281
0.0020926
0.00209243
0.0020923
0.00209219
0.00209209
0.002092
0.00209193
0.00209187
0.00209181
0.00209176
0.00209172
0.0020917
0.00209169
0.00204828
0.00204831
0.00204837
0.00204846
0.00204857
0.00204872
0.0020489
0.0020491
0.00204933
0.00204958
0.00204984
0.00205012
0.0020504
0.00205071
0.00205107
0.00205148
0.00205196
0.00205255
0.0020534
0.00205484
0.00205796
0.00206522
0.00208412
0.00214886
0.00257192
0.00966761
0.131654
0.146648
0.0548919
0.0420515
0.0356286
0.0216687
0.00631422
0.00347976
0.0026943
0.00222924
0.00216816
0.00209893
0.00207539
0.00206263
0.00205768
0.00205476
0.00205309
0.00205203
0.00205136
0.00205089
0.00205055
0.00205029
0.00205007
0.0020499
0.00204975
0.00204962
0.00204951
0.00204942
0.00204934
0.00204927
0.00204921
0.00204916
0.00204914
0.00204911
0.00200722
0.00200725
0.00200731
0.0020074
0.00200752
0.00200767
0.00200785
0.00200806
0.00200829
0.00200853
0.00200878
0.00200905
0.00200936
0.00200972
0.00201011
0.00201054
0.00201104
0.00201165
0.00201255
0.00201402
0.00201734
0.00202491
0.00205043
0.00213339
0.00331532
0.0208865
0.14351
0.138501
0.0374439
0.0347117
0.0268769
0.0123825
0.00530959
0.00351033
0.00272512
0.0022273
0.0021396
0.00206061
0.00203565
0.00202286
0.00201746
0.00201445
0.00201268
0.00201152
0.00201076
0.00201024
0.00200988
0.00200958
0.00200933
0.00200912
0.00200894
0.00200879
0.00200865
0.00200854
0.00200844
0.00200836
0.00200829
0.00200824
0.00200821
0.00200818
0.00196771
0.00196774
0.0019678
0.00196789
0.00196801
0.00196817
0.00196835
0.00196856
0.00196878
0.00196901
0.00196926
0.00196956
0.0019699
0.00197027
0.00197068
0.00197114
0.00197166
0.00197231
0.00197326
0.0019748
0.00197831
0.00198658
0.00202105
0.00212757
0.0042965
0.0293735
0.131414
0.121779
0.0620669
0.026079
0.018203
0.00790665
0.00480149
0.0034923
0.0027233
0.00224625
0.00211101
0.0020243
0.00199688
0.0019843
0.00197858
0.00197548
0.00197367
0.00197249
0.00197168
0.00197111
0.0019707
0.00197039
0.00197012
0.00196988
0.00196967
0.00196949
0.00196934
0.00196921
0.00196909
0.001969
0.00196892
0.00196886
0.00196882
0.00196879
0.00192967
0.00192969
0.00192975
0.00192985
0.00192997
0.00193013
0.00193031
0.00193051
0.00193072
0.00193096
0.00193124
0.00193155
0.0019319
0.00193229
0.00193271
0.00193319
0.00193374
0.00193443
0.00193544
0.00193708
0.00194078
0.00194998
0.00199468
0.00212505
0.00510111
0.0334421
0.116879
0.0968487
0.0735248
0.0350345
0.0112913
0.00582774
0.00458417
0.00346318
0.00272328
0.0022845
0.0020822
0.00199074
0.00195922
0.00194685
0.00194097
0.00193789
0.001936
0.00193482
0.001934
0.0019334
0.00193295
0.00193261
0.00193233
0.00193208
0.00193185
0.00193165
0.00193148
0.00193133
0.0019312
0.0019311
0.00193101
0.00193094
0.0019309
0.00193087
0.00189302
0.00189304
0.0018931
0.00189319
0.00189332
0.00189347
0.00189363
0.00189382
0.00189405
0.00189431
0.0018946
0.00189492
0.00189527
0.00189567
0.00189611
0.0018966
0.00189719
0.00189793
0.001899
0.00190077
0.0019046
0.00191473
0.00197001
0.00211813
0.00557116
0.034593
0.103366
0.0824581
0.053201
0.0434737
0.0141944
0.00524133
0.00462968
0.00356925
0.00277013
0.00233378
0.00205347
0.00196027
0.00192276
0.00191047
0.00190459
0.00190158
0.00189968
0.00189846
0.00189761
0.00189699
0.00189656
0.0018962
0.0018959
0.00189564
0.0018954
0.00189518
0.00189499
0.00189483
0.00189469
0.00189457
0.00189447
0.0018944
0.00189436
0.00189432
0.00185768
0.00185769
0.00185776
0.00185785
0.00185797
0.00185811
0.00185827