/*--------------------------------*- C++ -*----------------------------------*\
  =========                 |
  \\      /  F ield         | OpenFOAM: The Open Source CFD Toolbox
   \\    /   O peration     | Website:  https://openfoam.org
    \\  /    A nd           | Version:  12
     \\/     M anipulation  |
\*---------------------------------------------------------------------------*/
FoamFile
{
    format      ascii;
    class       volScalarField;
    location    "200";
    object      nut;
}
// * * * * * * * * * * * * * * * * * * * * * * * * * * * * * * * * * * * * * //

dimensions      [0 2 -1 0 0 0 0];

internalField   nonuniform List<scalar> 
16227
(
0.000978543
0.000978543
0.000978543
0.000978543
0.000978543
0.000978543
0.000978543
0.000978543
0.000978543
0.000978543
0.000978543
0.000978543
0.000978544
0.000978544
0.000978544
0.000978544
0.000978544
0.000978544
0.000978544
0.000978544
0.000978544
0.000978544
0.000978544
0.000978544
0.000978544
0.000978544
0.000978544
0.000978544
0.000978544
0.000978544
0.000978544
0.000978544
0.000978544
0.000978544
0.000978544
0.000978544
0.000978544
0.000978544
0.000978544
0.000978544
0.000978544
0.000978544
0.000978544
0.000978544
0.000978544
0.000978544
0.000978544
0.000978544
0.000978544
0.000978544
0.000978544
0.000978543
0.000978543
0.000978543
0.000978543
0.000978543
0.000978543
0.000978543
0.000978543
0.000978543
0.000972834
0.000972834
0.000972834
0.000972834
0.000972834
0.000972834
0.000972834
0.000972834
0.000972834
0.000972834
0.000972835
0.000972835
0.000972836
0.000972836
0.000972837
0.000972837
0.000972837
0.000972837
0.000972837
0.000972837
0.000972837
0.000972837
0.000972837
0.000972837
0.000972837
0.000972837
0.000972837
0.000972837
0.000972837
0.000972836
0.000972837
0.000972837
0.000972837
0.000972837
0.000972837
0.000972837
0.000972836
0.000972836
0.000972836
0.000972836
0.000972836
0.000972836
0.000972836
0.000972836
0.000972836
0.000972836
0.000972836
0.000972836
0.000972836
0.000972836
0.000972836
0.000972836
0.000972835
0.000972835
0.000972834
0.000972834
0.000972835
0.000972834
0.000972834
0.000972834
0.000967494
0.000967494
0.000967494
0.000967494
0.000967494
0.000967495
0.000967495
0.000967495
0.000967495
0.000967495
0.000967495
0.000967495
0.000967497
0.000967498
0.000967498
0.000967498
0.000967498
0.000967498
0.000967498
0.000967498
0.000967498
0.000967498
0.000967498
0.000967498
0.000967498
0.000967498
0.000967498
0.000967498
0.000967498
0.000967497
0.000967498
0.000967498
0.000967498
0.000967498
0.000967498
0.000967498
0.000967498
0.000967498
0.000967498
0.000967498
0.000967498
0.000967498
0.000967498
0.000967498
0.000967498
0.000967498
0.000967498
0.000967498
0.000967498
0.000967497
0.000967497
0.000967495
0.000967495
0.000967495
0.000967495
0.000967495
0.000967495
0.000967494
0.000967494
0.000967494
0.000962481
0.000962481
0.000962481
0.000962481
0.000962482
0.000962482
0.000962482
0.000962482
0.000962482
0.000962482
0.000962482
0.000962483
0.000962485
0.000962486
0.000962486
0.000962486
0.000962487
0.000962487
0.000962486
0.000962485
0.000962486
0.000962486
0.000962486
0.000962486
0.000962486
0.000962486
0.000962486
0.000962486
0.000962485
0.000962485
0.000962485
0.000962485
0.000962485
0.000962485
0.000962485
0.000962485
0.000962485
0.000962485
0.000962485
0.000962485
0.000962486
0.000962485
0.000962485
0.000962486
0.000962486
0.000962486
0.000962486
0.000962486
0.000962486
0.000962485
0.000962484
0.000962482
0.000962482
0.000962482
0.000962482
0.000962482
0.000962482
0.000962481
0.000962481
0.000962481
0.00095776
0.00095776
0.00095776
0.00095776
0.00095776
0.000957761
0.000957761
0.000957761
0.000957761
0.000957761
0.000957761
0.000957762
0.000957764
0.000957766
0.000957766
0.000957766
0.000957766
0.000957766
0.000957764
0.000957763
0.000957765
0.000957765
0.000957765
0.000957765
0.000957765
0.000957765
0.000957765
0.000957764
0.000957764
0.000957763
0.000957764
0.000957764
0.000957764
0.000957764
0.000957764
0.000957764
0.000957764
0.000957764
0.000957764
0.000957764
0.000957764
0.000957764
0.000957764
0.000957764
0.000957765
0.000957765
0.000957765
0.000957765
0.000957765
0.000957764
0.000957762
0.000957761
0.00095776
0.00095776
0.000957761
0.000957761
0.000957761
0.00095776
0.00095776
0.00095776
0.000953301
0.000953301
0.000953301
0.000953301
0.000953301
0.000953301
0.000953302
0.000953301
0.000953301
0.000953301
0.000953301
0.000953302
0.000953303
0.000953306
0.000953307
0.000953307
0.000953307
0.000953306
0.000953303
0.000953303
0.000953305
0.000953306
0.000953305
0.000953305
0.000953305
0.000953304
0.000953304
0.000953304
0.000953303
0.000953302
0.000953303
0.000953303
0.000953303
0.000953303
0.000953303
0.000953303
0.000953303
0.000953303
0.000953303
0.000953304
0.000953304
0.000953304
0.000953304
0.000953305
0.000953305
0.000953305
0.000953305
0.000953305
0.000953305
0.000953304
0.000953301
0.0009533
0.0009533
0.000953301
0.000953301
0.000953301
0.000953301
0.0009533
0.0009533
0.0009533
0.000949077
0.000949077
0.000949077
0.000949077
0.000949077
0.000949078
0.000949078
0.000949078
0.000949078
0.000949078
0.000949077
0.000949078
0.000949079
0.000949082
0.000949083
0.000949084
0.000949083
0.00094908
0.000949078
0.000949078
0.000949081
0.000949081
0.000949081
0.00094908
0.00094908
0.000949079
0.000949078
0.000949078
0.000949077
0.000949076
0.000949077
0.000949077
0.000949077
0.000949077
0.000949077
0.000949077
0.000949077
0.000949078
0.000949078
0.000949078
0.000949079
0.000949079
0.000949079
0.00094908
0.00094908
0.000949081
0.000949081
0.000949081
0.000949081
0.000949078
0.000949076
0.000949076
0.000949076
0.000949077
0.000949077
0.000949077
0.000949077
0.000949076
0.000949076
0.000949076
0.000945067
0.000945067
0.000945067
0.000945067
0.000945067
0.000945068
0.000945068
0.000945068
0.000945068
0.000945067
0.000945067
0.000945067
0.000945067
0.000945069
0.000945072
0.000945074
0.000945073
0.000945068
0.000945067
0.000945067
0.000945069
0.000945069
0.000945069
0.000945068
0.000945067
0.000945066
0.000945066
0.000945065
0.000945064
0.000945062
0.000945063
0.000945063
0.000945063
0.000945063
0.000945063
0.000945064
0.000945064
0.000945064
0.000945065
0.000945066
0.000945066
0.000945067
0.000945068
0.000945068
0.000945069
0.000945069
0.00094507
0.00094507
0.000945069
0.000945066
0.000945065
0.000945065
0.000945066
0.000945066
0.000945066
0.000945067
0.000945066
0.000945066
0.000945066
0.000945066
0.000941252
0.000941252
0.000941252
0.000941252
0.000941252
0.000941252
0.000941253
0.000941253
0.000941252
0.000941252
0.000941251
0.000941251
0.000941251
0.000941252
0.000941256
0.000941257
0.000941255
0.000941251
0.00094125
0.000941249
0.000941252
0.000941252
0.00094125
0.000941249
0.000941248
0.000941247
0.000941246
0.000941245
0.000941244
0.000941242
0.000941243
0.000941243
0.000941243
0.000941243
0.000941243
0.000941244
0.000941244
0.000941245
0.000941246
0.000941246
0.000941247
0.000941248
0.000941249
0.00094125
0.000941251
0.000941252
0.000941253
0.000941252
0.000941249
0.000941248
0.000941247
0.000941248
0.000941249
0.00094125
0.00094125
0.00094125
0.00094125
0.00094125
0.00094125
0.00094125
0.000937614
0.000937614
0.000937614
0.000937614
0.000937614
0.000937614
0.000937614
0.000937614
0.000937614
0.000937614
0.000937613
0.000937612
0.000937612
0.000937613
0.000937617
0.000937618
0.000937614
0.000937611
0.000937609
0.000937609
0.000937611
0.000937611
0.000937609
0.000937607
0.000937606
0.000937604
0.000937603
0.000937602
0.0009376
0.000937598
0.000937599
0.000937599
0.000937599
0.000937599
0.000937599
0.0009376
0.000937601
0.000937602
0.000937603
0.000937604
0.000937605
0.000937607
0.000937608
0.000937609
0.000937611
0.000937612
0.000937613
0.000937612
0.000937609
0.000937608
0.000937608
0.000937609
0.00093761
0.000937611
0.000937611
0.000937612
0.000937611
0.000937611
0.000937611
0.000937611
0.000934139
0.000934139
0.000934139
0.000934139
0.000934139
0.000934139
0.000934139
0.000934139
0.000934139
0.000934138
0.000934138
0.000934136
0.000934135
0.000934136
0.000934137
0.00093414
0.000934136
0.000934133
0.000934132
0.000934131
0.000934132
0.000934131
0.00093413
0.000934127
0.000934125
0.000934123
0.000934122
0.00093412
0.000934118
0.000934116
0.000934116
0.000934116
0.000934116
0.000934116
0.000934117
0.000934118
0.000934119
0.00093412
0.000934122
0.000934124
0.000934125
0.000934127
0.000934129
0.00093413
0.000934132
0.000934133
0.000934134
0.000934132
0.000934131
0.00093413
0.000934131
0.000934132
0.000934133
0.000934134
0.000934135
0.000934135
0.000934135
0.000934135
0.000934135
0.000934135
0.000930813
0.000930813
0.000930813
0.000930813
0.000930813
0.000930813
0.000930813
0.000930813
0.000930813
0.000930812
0.000930812
0.00093081
0.000930809
0.000930809
0.000930809
0.000930811
0.000930808
0.000930805
0.000930803
0.000930801
0.0009308
0.000930801
0.000930799
0.000930796
0.000930794
0.000930791
0.000930789
0.000930787
0.000930784
0.000930782
0.000930782
0.000930782
0.000930782
0.000930782
0.000930783
0.000930784
0.000930786
0.000930788
0.00093079
0.000930792
0.000930794
0.000930796
0.000930799
0.000930801
0.000930803
0.000930804
0.000930803
0.000930803
0.000930803
0.000930803
0.000930804
0.000930805
0.000930806
0.000930808
0.000930808
0.000930809
0.000930809
0.000930809
0.000930809
0.000930809
0.000927626
0.000927626
0.000927626
0.000927626
0.000927626
0.000927626
0.000927626
0.000927626
0.000927625
0.000927625
0.000927624
0.000927622
0.000927621
0.000927619
0.000927618
0.000927618
0.000927617
0.000927615
0.000927612
0.00092761
0.000927607
0.000927608
0.000927606
0.000927602
0.000927599
0.000927596
0.000927593
0.00092759
0.000927588
0.000927584
0.000927585
0.000927585
0.000927585
0.000927585
0.000927586
0.000927588
0.00092759
0.000927592
0.000927595
0.000927597
0.0009276
0.000927603
0.000927606
0.000927609
0.000927611
0.000927612
0.000927612
0.000927613
0.000927613
0.000927613
0.000927614
0.000927616
0.000927618
0.000927619
0.00092762
0.000927621
0.000927621
0.000927621
0.000927621
0.000927621
0.000924567
0.000924567
0.000924567
0.000924567
0.000924566
0.000924566
0.000924566
0.000924566
0.000924566
0.000924565
0.000924564
0.000924562
0.00092456
0.000924558
0.000924556
0.000924555
0.000924555
0.000924552
0.000924549
0.000924546
0.000924542
0.000924543
0.00092454
0.000924536
0.000924531
0.000924527
0.000924524
0.000924521
0.000924517
0.000924514
0.000924514
0.000924514
0.000924514
0.000924515
0.000924516
0.000924518
0.000924521
0.000924524
0.000924527
0.00092453
0.000924534
0.000924537
0.000924541
0.000924544
0.000924546
0.000924547
0.000924548
0.00092455
0.00092455
0.000924551
0.000924553
0.000924555
0.000924557
0.000924558
0.000924559
0.00092456
0.00092456
0.000924561
0.000924561
0.000924561
0.000921626
0.000921626
0.000921626
0.000921626
0.000921626
0.000921626
0.000921626
0.000921625
0.000921625
0.000921623
0.000921622
0.00092162
0.000921618
0.000921616
0.000921614
0.000921612
0.000921611
0.000921608
0.000921604
0.0009216
0.000921596
0.000921596
0.000921592
0.000921587
0.000921582
0.000921577
0.000921573
0.000921569
0.000921565
0.000921561
0.000921561
0.000921561
0.000921561
0.000921562
0.000921564
0.000921566
0.000921569
0.000921573
0.000921577
0.000921581
0.000921585
0.00092159
0.000921594
0.000921597
0.000921598
0.0009216
0.000921603
0.000921605
0.000921606
0.000921608
0.00092161
0.000921612
0.000921614
0.000921616
0.000921617
0.000921618
0.000921619
0.000921619
0.000921619
0.00092162
0.000918796
0.000918796
0.000918796
0.000918796
0.000918795
0.000918795
0.000918795
0.000918795
0.000918794
0.000918793
0.000918791
0.000918789
0.000918787
0.000918784
0.000918782
0.00091878
0.000918778
0.000918775
0.00091877
0.000918765
0.00091876
0.000918758
0.000918754
0.000918748
0.000918742
0.000918736
0.000918731
0.000918726
0.000918722
0.000918717
0.000918717
0.000918717
0.000918717
0.000918718
0.000918721
0.000918724
0.000918727
0.000918732
0.000918737
0.000918742
0.000918747
0.000918752
0.000918757
0.00091876
0.000918761
0.000918765
0.000918768
0.00091877
0.000918772
0.000918775
0.000918778
0.00091878
0.000918782
0.000918784
0.000918786
0.000918787
0.000918788
0.000918788
0.000918789
0.000918789
0.000916069
0.000916068
0.000916069
0.000916068
0.000916068
0.000916068
0.000916068
0.000916067
0.000916066
0.000916065
0.000916063
0.000916061
0.000916059
0.000916056
0.000916053
0.00091605
0.000916048
0.000916044
0.000916038
0.000916032
0.000916026
0.000916021
0.000916018
0.000916012
0.000916005
0.000915998
0.000915992
0.000915986
0.000915981
0.000915976
0.000915976
0.000915975
0.000915976
0.000915977
0.00091598
0.000915984
0.000915988
0.000915993
0.000915999
0.000916005
0.000916011
0.000916017
0.000916021
0.000916024
0.000916028
0.000916032
0.000916036
0.000916039
0.000916042
0.000916045
0.000916048
0.000916051
0.000916054
0.000916056
0.000916058
0.000916059
0.00091606
0.00091606
0.000916061
0.000916061
0.000913437
0.000913437
0.000913437
0.000913437
0.000913437
0.000913437
0.000913437
0.000913436
0.000913435
0.000913434
0.000913432
0.000913429
0.000913427
0.000913424
0.00091342
0.000913417
0.000913415
0.00091341
0.000913404
0.000913397
0.00091339
0.000913382
0.000913379
0.000913372
0.000913364
0.000913356
0.000913349
0.000913343
0.000913337
0.000913331
0.00091333
0.00091333
0.00091333
0.000913332
0.000913335
0.00091334
0.000913345
0.000913351
0.000913358
0.000913364
0.000913371
0.000913377
0.000913381
0.000913386
0.000913391
0.000913397
0.000913401
0.000913404
0.000913408
0.000913412
0.000913415
0.000913418
0.000913421
0.000913424
0.000913426
0.000913427
0.000913428
0.000913428
0.000913429
0.000913429
0.000910896
0.000910897
0.000910896
0.000910896
0.000910896
0.000910896
0.000910896
0.000910895
0.000910894
0.000910893
0.000910891
0.000910888
0.000910885
0.000910882
0.000910878
0.000910875
0.000910872
0.000910866
0.00091086
0.000910852
0.000910844
0.000910836
0.000910831
0.000910824
0.000910815
0.000910806
0.000910798
0.000910791
0.000910784
0.000910778
0.000910777
0.000910776
0.000910776
0.000910778
0.000910781
0.000910786
0.000910792
0.000910799
0.000910807
0.000910814
0.000910822
0.000910828
0.000910833
0.000910839
0.000910845
0.000910851
0.000910856
0.00091086
0.000910865
0.000910869
0.000910873
0.000910876
0.000910879
0.000910882
0.000910884
0.000910886
0.000910886
0.000910887
0.000910888
0.000910888
0.00090844
0.00090844
0.00090844
0.00090844
0.00090844
0.00090844
0.000908439
0.000908439
0.000908438
0.000908436
0.000908434
0.000908432
0.000908429
0.000908425
0.000908421
0.000908417
0.000908414
0.000908408
0.000908401
0.000908393
0.000908384
0.000908375
0.000908367
0.000908361
0.000908353
0.000908343
0.000908335
0.000908327
0.000908319
0.000908313
0.00090831
0.000908309
0.000908309
0.000908311
0.000908314
0.000908319
0.000908326
0.000908333
0.000908341
0.000908349
0.000908356
0.000908363
0.00090837
0.000908378
0.000908385
0.000908391
0.000908396
0.000908401
0.000908406
0.000908411
0.000908415
0.000908419
0.000908422
0.000908425
0.000908427
0.000908429
0.00090843
0.000908431
0.000908431
0.000908432
0.000906063
0.000906063
0.000906063
0.000906063
0.000906063
0.000906063
0.000906063
0.000906062
0.000906061
0.00090606
0.000906058
0.000906055
0.000906052
0.000906048
0.000906044
0.00090604
0.000906035
0.000906031
0.000906024
0.000906015
0.000906006
0.000905997
0.000905988
0.000905984
0.000905975
0.000905966
0.000905957
0.000905948
0.000905941
0.000905933
0.00090593
0.000905928
0.000905927
0.000905928
0.00090593
0.000905935
0.000905942
0.000905949
0.000905957
0.000905965
0.000905972
0.00090598
0.000905989
0.000905997
0.000906005
0.000906011
0.000906017
0.000906023
0.000906029
0.000906034
0.000906038
0.000906042
0.000906045
0.000906048
0.000906051
0.000906052
0.000906053
0.000906054
0.000906055
0.000906055
0.000903761
0.000903761
0.000903761
0.000903761
0.000903761
0.000903761
0.000903761
0.00090376
0.00090376
0.000903758
0.000903756
0.000903754
0.000903751
0.000903748
0.000903743
0.000903739
0.000903734
0.00090373
0.000903723
0.000903716
0.000903707
0.000903699
0.000903691
0.000903688
0.000903682
0.000903673
0.000903665
0.000903657
0.00090365
0.000903641
0.000903637
0.000903633
0.000903629
0.000903628
0.000903629
0.000903632
0.000903637
0.000903644
0.000903651
0.00090366
0.000903667
0.000903675
0.000903685
0.000903694
0.000903701
0.000903708
0.000903714
0.000903721
0.000903727
0.000903732
0.000903736
0.00090374
0.000903744
0.000903747
0.000903749
0.000903751
0.000903752
0.000903753
0.000903753
0.000903754
0.00090153
0.00090153
0.00090153
0.00090153
0.00090153
0.00090153
0.00090153
0.00090153
0.000901529
0.000901528
0.000901526
0.000901524
0.000901521
0.000901518
0.000901514
0.00090151
0.000901506
0.000901502
0.000901497
0.00090149
0.000901484
0.000901478
0.000901474
0.000901473
0.000901478
0.000901472
0.000901467
0.000901461
0.000901455
0.000901446
0.00090144
0.000901433
0.000901425
0.000901419
0.000901415
0.000901414
0.000901412
0.000901416
0.000901421
0.000901428
0.000901436
0.000901445
0.000901454
0.000901462
0.00090147
0.000901477
0.000901484
0.00090149
0.000901497
0.000901502
0.000901506
0.00090151
0.000901514
0.000901516
0.000901519
0.00090152
0.000901521
0.000901522
0.000901523
0.000901523
0.000899365
0.000899365
0.000899365
0.000899365
0.000899366
0.000899366
0.000899366
0.000899366
0.000899365
0.000899365
0.000899363
0.000899362
0.000899359
0.000899357
0.000899354
0.00089935
0.000899346
0.000899343
0.00089934
0.000899337
0.000899334
0.000899334
0.000899337
0.000899364
0.000900375
0.000900375
0.000900372
0.000900368
0.000900364
0.000900357
0.000900351
0.000900342
0.000900331
0.000900321
0.000900312
0.000900307
0.000899281
0.000899267
0.000899268
0.000899272
0.000899279
0.000899286
0.000899294
0.000899301
0.000899308
0.000899315
0.000899322
0.000899329
0.000899334
0.00089934
0.000899344
0.000899348
0.000899351
0.000899354
0.000899356
0.000899357
0.000899358
0.000899359
0.00089936
0.00089936
0.000897264
0.000897264
0.000897264
0.000897264
0.000897264
0.000897265
0.000897265
0.000897265
0.000897265
0.000897265
0.000897264
0.000897263
0.000897261
0.000897259
0.000897257
0.000897255
0.000897252
0.000897251
0.000897251
0.000897253
0.000897257
0.000897267
0.000897299
0.0008983
0.000898247
0.000898271
0.00089828
0.000898289
0.000898295
0.000898294
0.000898286
0.000898269
0.000898245
0.000898217
0.00089819
0.00089817
0.000898212
0.000897209
0.000897195
0.000897192
0.000897193
0.000897197
0.000897202
0.000897207
0.000897213
0.000897219
0.000897226
0.000897232
0.000897237
0.000897242
0.000897246
0.000897249
0.000897252
0.000897255
0.000897256
0.000897258
0.000897259
0.000897259
0.00089726
0.00089726
0.000895222
0.000895222
0.000895222
0.000895222
0.000895223
0.000895223
0.000895224
0.000895225
0.000895225
0.000895225
0.000895225
0.000895224
0.000895224
0.000895223
0.000895222
0.000895222
0.000895222
0.000895223
0.000895228
0.000895238
0.000895253
0.000895279
0.00089535
0.000896254
0.000896232
0.000896766
0.000896786
0.000896814
0.00089684
0.000896855
0.000896854
0.000896831
0.000896788
0.000896733
0.000896676
0.000896151
0.000896156
0.000895231
0.000895204
0.000895186
0.000895178
0.000895176
0.000895176
0.000895178
0.000895182
0.000895187
0.000895192
0.000895197
0.000895202
0.000895205
0.000895209
0.000895212
0.000895214
0.000895216
0.000895218
0.000895219
0.000895219
0.00089522
0.00089522
0.00089522
0.000893236
0.000893237
0.000893237
0.000893237
0.000893238
0.000893239
0.00089324
0.000893241
0.000893242
0.000893242
0.000893243
0.000893243
0.000893244
0.000893245
0.000893246
0.000893248
0.000893251
0.000893258
0.000893269
0.000893288
0.00089332
0.000893374
0.000893501
0.000894316
0.000894336
0.000894888
0.000894913
0.000895005
0.000895104
0.000895183
0.000895212
0.000895177
0.000895079
0.000894946
0.000894801
0.000894237
0.000894219
0.000893339
0.000893296
0.000893258
0.000893234
0.000893221
0.000893214
0.000893212
0.000893213
0.000893216
0.000893219
0.000893222
0.000893225
0.000893228
0.00089323
0.000893232
0.000893234
0.000893235
0.000893236
0.000893237
0.000893237
0.000893238
0.000893238
0.000893238
0.000891305
0.000891305
0.000891306
0.000891306
0.000891307
0.000891308
0.000891309
0.000891311
0.000891312
0.000891314
0.000891315
0.000891317
0.000891318
0.000891321
0.000891325
0.00089133
0.000891338
0.000891351
0.000891372
0.000891405
0.00089146
0.000891558
0.00089176
0.000892504
0.000892617
0.000893293
0.000893317
0.000893596
0.000893894
0.000894121
0.000894188
0.00089407
0.000893806
0.000893489
0.000893184
0.000892419
0.000892441
0.000891545
0.000891476
0.000891409
0.000891361
0.000891333
0.000891317
0.000891308
0.000891304
0.000891302
0.000891302
0.000891303
0.000891304
0.000891305
0.000891306
0.000891307
0.000891308
0.000891309
0.00089131
0.00089131
0.00089131
0.00089131
0.00089131
0.00089131
0.000889424
0.000889425
0.000889425
0.000889426
0.000889427
0.000889429
0.00088943
0.000889432
0.000889434
0.000889436
0.000889439
0.000889442
0.000889445
0.00088945
0.000889456
0.000889465
0.000889479
0.0008895
0.000889534
0.000889587
0.000889676
0.000889838
0.000890134
0.000890834
0.000891179
0.000892093
0.00089221
0.000893053
0.000893969
0.000894637
0.000894726
0.000894232
0.000893444
0.000892662
0.00089202
0.000890755
0.000890872
0.000889863
0.000889749
0.000889641
0.000889561
0.000889512
0.000889482
0.000889463
0.000889451
0.000889444
0.00088944
0.000889438
0.000889437
0.000889436
0.000889435
0.000889435
0.000889435
0.000889435
0.000889435
0.000889434
0.000889434
0.000889434
0.000889433
0.000889433
0.000887592
0.000887593
0.000887594
0.000887594
0.000887596
0.000887598
0.0008876
0.000887602
0.000887605
0.000887608
0.000887611
0.000887615
0.00088762
0.000887628
0.000887637
0.000887651
0.000887671
0.000887703
0.000887752
0.000887831
0.000887969
0.000888217
0.000888622
0.000889337
0.000890171
0.00089145
0.000892153
0.000894726
0.000897889
0.000900226
0.000900102
0.000897866
0.000895207
0.000893093
0.000891643
0.000889383
0.000889568
0.000888326
0.000888123
0.000887962
0.000887836
0.000887758
0.000887708
0.000887675
0.000887654
0.00088764
0.000887631
0.000887625
0.00088762
0.000887617
0.000887614
0.000887613
0.000887611
0.00088761
0.000887609
0.000887608
0.000887607
0.000887606
0.000887606
0.000887606
0.000885807
0.000885807
0.000885808
0.000885809
0.000885811
0.000885813
0.000885815
0.000885818
0.000885822
0.000885826
0.00088583
0.000885836
0.000885843
0.000885852
0.000885865
0.000885884
0.000885911
0.000885954
0.000886023
0.000886134
0.000886335
0.000886692
0.000887209
0.000888048
0.000889772
0.000891657
0.000894676
0.000903181
0.000916663
0.000927896
0.000925206
0.00091291
0.000902307
0.000896016
0.000892551
0.000888582
0.000888581
0.000886975
0.000886612
0.000886373
0.000886186
0.000886068
0.000885992
0.000885943
0.00088591
0.000885887
0.000885871
0.00088586
0.000885852
0.000885846
0.000885841
0.000885838
0.000885835
0.000885832
0.00088583
0.000885829
0.000885827
0.000885826
0.000885825
0.000885825
0.000884065
0.000884066
0.000884067
0.000884068
0.00088407
0.000884072
0.000884075
0.000884079
0.000884083
0.000884087
0.000884093
0.0008841
0.000884109
0.000884121
0.000884137
0.00088416
0.000884195
0.00088425
0.00088434
0.000884487
0.000884767
0.000885247
0.000885875
0.000887015
0.000890119
0.000893401
0.000903955
0.000830979
0.00036918
0.000257241
0.000293771
0.000507839
0.000923466
0.000903578
0.000895333
0.000888734
0.000887957
0.000885864
0.000885226
0.000884871
0.000884609
0.000884441
0.000884334
0.000884263
0.000884215
0.000884183
0.000884159
0.000884143
0.00088413
0.000884121
0.000884114
0.000884108
0.000884103
0.000884099
0.000884096
0.000884094
0.000884091
0.00088409
0.000884089
0.000884088
0.000882366
0.000882366
0.000882367
0.000882369
0.000882371
0.000882374
0.000882377
0.000882381
0.000882386
0.000882391
0.000882398
0.000882406
0.000882416
0.000882431
0.00088245
0.000882478
0.00088252
0.000882586
0.000882697
0.000882883
0.000883249
0.000883854
0.000884595
0.000886274
0.000891273
0.000897908
0.00092875
0.000375947
0.000166417
9.24962e-05
0.000116345
0.000234001
0.000631531
0.000918225
0.000900339
0.000890169
0.000887726
0.000885034
0.00088398
0.000883453
0.000883102
0.000882873
0.000882728
0.000882633
0.000882568
0.000882524
0.000882492
0.000882469
0.000882452
0.000882439
0.000882429
0.000882421
0.000882414
0.000882409
0.000882405
0.000882401
0.000882398
0.000882396
0.000882395
0.000882394
0.000880706
0.000880707
0.000880708
0.00088071
0.000880712
0.000880715
0.000880719
0.000880723
0.000880729
0.000880735
0.000880743
0.000880752
0.000880764
0.00088078
0.000880802
0.000880834
0.000880882
0.000880958
0.000881087
0.000881309
0.000881759
0.000882484
0.000883362
0.000885799
0.000893156
0.000905825
0.000845541
0.00029175
0.000234513
0.000130079
0.000729315
0.000937825
0.00090717
0.000892895
0.000887893
0.000884497
0.000882883
0.000882111
0.000881657
0.000881358
0.000881171
0.000881048
0.000880965
0.000880907
0.000880867
0.000880837
0.000880814
0.000880797
0.000880784
0.000880774
0.000880765
0.000880758
0.000880753
0.000880749
0.000880745
0.000880743
0.000880741
0.00088074
0.000879085
0.000879085
0.000879087
0.000879089
0.000879091
0.000879095
0.000879099
0.000879104
0.00087911
0.000879117
0.000879125
0.000879136
0.000879149
0.000879167
0.000879191
0.000879225
0.000879278
0.000879361
0.000879504
0.000879756
0.000880277
0.000881119
0.000882218
0.000885542
0.000895643
0.00091546
0.000899843
0.000400606
0.000196155
0.000103902
3.51924e-05
0.000840997
0.000954433
0.000915193
0.000896524
0.000888433
0.000884215
0.000881935
0.000880838
0.000880269
0.000879893
0.000879659
0.000879506
0.000879403
0.000879332
0.000879281
0.000879244
0.000879217
0.000879196
0.000879179
0.000879166
0.000879156
0.000879147
0.00087914
0.000879135
0.000879131
0.000879128
0.000879126
0.000879125
0.000877501
0.000877501
0.000877503
0.000877505
0.000877508
0.000877511
0.000877516
0.000877521
0.000877528
0.000877535
0.000877544
0.000877556
0.00087757
0.000877589
0.000877614
0.000877651
0.000877706
0.000877793
0.000877945
0.000878218
0.000878787
0.00087977
0.000881236
0.00088555
0.000898811
0.000925578
0.00105732
0.000714646
0.000182807
0.000399576
0.000410115
0.000412972
0.000421201
0.000965711
0.000924643
0.000900382
0.000889273
0.000884092
0.00088111
0.00087962
0.000878926
0.000878468
0.000878187
0.000878003
0.00087788
0.000877794
0.000877734
0.000877689
0.000877656
0.000877631
0.000877611
0.000877595
0.000877583
0.000877573
0.000877565
0.000877558
0.000877553
0.000877549
0.000877547
0.000877546
0.000875951
0.000875952
0.000875953
0.000875956
0.000875959
0.000875963
0.000875968
0.000875973
0.00087598
0.000875988
0.000875998
0.00087601
0.000876025
0.000876045
0.000876071
0.000876108
0.000876164
0.000876252
0.000876407
0.000876694
0.000877288
0.000878454
0.000880402
0.000885802
0.000903122
0.00093547
0.00110238
0.00109388
0.000504712
0.000144215
0.000168106
0.00129298
0.000353768
0.000954018
0.000936015
0.000903518
0.000890288
0.000883989
0.000880357
0.000878438
0.000877616
0.000877075
0.000876748
0.000876533
0.00087639
0.000876291
0.000876221
0.000876169
0.000876131
0.000876101
0.000876078
0.00087606
0.000876045
0.000876033
0.000876024
0.000876016
0.00087601
0.000876006
0.000876003
0.000876002
0.000874436
0.000874436
0.000874438
0.00087444
0.000874443
0.000874448
0.000874453
0.000874459
0.000874466
0.000874475
0.000874485
0.000874498
0.000874513
0.000874533
0.00087456
0.000874597
0.000874651
0.000874738
0.000874892
0.000875187
0.000875797
0.000877169
0.000879615
0.000886221
0.000909365
0.000944899
0.00116753
0.00144121
0.00128165
0.000366738
0.000194184
0.00137985
0.000353581
0.000937759
0.000949318
0.000905033
0.000891353
0.00088376
0.000879608
0.000877273
0.000876326
0.000875706
0.000875336
0.000875093
0.000874931
0.000874819
0.00087474
0.000874682
0.000874638
0.000874604
0.000874578
0.000874557
0.00087454
0.000874527
0.000874516
0.000874508
0.000874501
0.000874496
0.000874493
0.000874491
0.000872952
0.000872953
0.000872955
0.000872957
0.000872961
0.000872965
0.00087297
0.000872977
0.000872985
0.000872994
0.000873004
0.000873017
0.000873033
0.000873053
0.00087308
0.000873115
0.000873168
0.000873254
0.000873407
0.000873708
0.000874345
0.00087589
0.000878796
0.000886792
0.000916552
0.000966577
0.001529
0.00302668
0.00524498
0.00586509
0.00157295
0.000711469
0.000330832
0.000976326
0.000967108
0.00090527
0.000892499
0.00088331
0.000878797
0.000876109
0.000875045
0.000874354
0.000873947
0.000873678
0.000873499
0.000873377
0.000873289
0.000873225
0.000873176
0.000873139
0.00087311
0.000873086
0.000873068
0.000873053
0.000873041
0.000873031
0.000873023
0.000873018
0.000873015
0.000873012
0.0008715
0.000871501
0.000871502
0.000871505
0.000871509
0.000871513
0.000871519
0.000871526
0.000871534
0.000871543
0.000871554
0.000871568
0.000871583
0.000871603
0.000871628
0.000871665
0.000871718
0.000871804
0.000871959
0.000872264
0.00087295
0.000874602
0.000878113
0.000888364
0.000926941
0.00117828
0.0081739
0.0123809
0.00669196
0.00229552
0.000661731
0.000421071
0.000335962
0.00103214
0.000990653
0.000905984
0.000894015
0.00088266
0.000877876
0.000874936
0.000873761
0.000873012
0.000872574
0.000872284
0.000872093
0.000871961
0.000871866
0.000871797
0.000871744
0.000871704
0.000871672
0.000871646
0.000871626
0.000871609
0.000871595
0.000871585
0.000871577
0.000871571
0.000871567
0.000871564
0.000870078
0.000870078
0.00087008
0.000870083
0.000870086
0.000870091
0.000870097
0.000870104
0.000870112
0.000870122
0.000870133
0.000870146
0.000870162
0.000870182
0.000870209
0.000870246
0.000870301
0.000870388
0.000870547
0.000870861
0.000871611
0.000873342
0.000877946
0.00089176
0.00100754
0.00262705
0.0118737
0.00594404
0.00144673
0.000751453
0.000463156
0.000298048
0.000384242
0.00108849
0.00101566
0.000909924
0.000895991
0.000881899
0.00087683
0.000873757
0.000872472
0.000871681
0.000871216
0.00087091
0.000870709
0.00087057
0.00087047
0.000870396
0.00087034
0.000870297
0.000870262
0.000870234
0.000870212
0.000870194
0.00087018
0.000870168
0.000870159
0.000870152
0.000870148
0.000870146
0.000868684
0.000868684
0.000868686
0.000868689
0.000868693
0.000868698
0.000868704
0.000868711
0.000868719