/*--------------------------------*- C++ -*----------------------------------*\
  =========                 |
  \\      /  F ield         | OpenFOAM: The Open Source CFD Toolbox
   \\    /   O peration     | Website:  https://openfoam.org
    \\  /    A nd           | Version:  12
     \\/     M anipulation  |
\*---------------------------------------------------------------------------*/
FoamFile
{
    format      ascii;
    class       volScalarField;
    location    "200";
    object      omega;
}
// * * * * * * * * * * * * * * * * * * * * * * * * * * * * * * * * * * * * * //

dimensions      [0 0 -1 0 0 0 0];

internalField   nonuniform List<scalar> 
16227
(
9.34702
9.34704
9.34704
9.34707
9.34706
9.3471
9.34709
9.34708
9.34707
9.34709
9.34713
9.34715
9.3472
9.3472
9.3472
9.3472
9.3472
9.3472
9.3472
9.3472
9.3472
9.3472
9.3472
9.3472
9.3472
9.3472
9.3472
9.34722
9.34722
9.3472
9.34721
9.3472
9.3472
9.3472
9.34721
9.3472
9.3472
9.3472
9.3472
9.3472
9.3472
9.3472
9.3472
9.3472
9.3472
9.3472
9.3472
9.34719
9.34717
9.34717
9.34717
9.34716
9.3471
9.3471
9.34706
9.34705
9.34707
9.34705
9.34703
9.34702
8.71805
8.71808
8.71807
8.7181
8.71811
8.71814
8.71813
8.7181
8.71812
8.71813
8.71818
8.7182
8.71834
8.71839
8.71841
8.71841
8.71841
8.71841
8.71841
8.7184
8.71842
8.71843
8.71843
8.71843
8.71843
8.71843
8.71843
8.71842
8.71841
8.71836
8.71841
8.71842
8.71842
8.71842
8.71842
8.71841
8.7184
8.7184
8.7184
8.7184
8.7184
8.7184
8.7184
8.71839
8.71839
8.71838
8.71838
8.71838
8.71838
8.71837
8.71834
8.71829
8.71818
8.71816
8.71813
8.71811
8.71814
8.71806
8.71808
8.71805
8.1662
8.16622
8.16622
8.16624
8.16623
8.16632
8.16628
8.16626
8.16627
8.16628
8.16633
8.16635
8.16659
8.16665
8.16666
8.16667
8.16667
8.16666
8.16669
8.16663
8.16667
8.16668
8.16667
8.16667
8.16666
8.16666
8.16666
8.16666
8.16665
8.16658
8.16664
8.16665
8.16665
8.16665
8.16665
8.16665
8.16665
8.16664
8.16663
8.16663
8.16664
8.16664
8.16663
8.16662
8.16663
8.16663
8.16662
8.16662
8.16661
8.16659
8.16656
8.16637
8.1663
8.16628
8.16627
8.16626
8.16629
8.1662
8.16621
8.16619
7.67833
7.67834
7.67835
7.67836
7.67837
7.67843
7.67844
7.6784
7.67841
7.67841
7.67846
7.67851
7.67877
7.67884
7.67886
7.67887
7.67888
7.67889
7.67883
7.6787
7.67881
7.67885
7.67884
7.67884
7.67884
7.67883
7.67882
7.67881
7.67879
7.6787
7.67877
7.67878
7.67878
7.67878
7.67877
7.67878
7.67879
7.67878
7.67879
7.67878
7.67879
7.67879
7.67879
7.67879
7.67879
7.67879
7.67879
7.67879
7.6788
7.67877
7.67866
7.67847
7.67838
7.6784
7.6784
7.67842
7.67839
7.67833
7.67833
7.67831
7.2441
7.24412
7.24412
7.24414
7.24414
7.2442
7.24423
7.24417
7.24419
7.24419
7.24423
7.24429
7.24453
7.24466
7.24468
7.24468
7.24469
7.24466
7.24445
7.24438
7.24456
7.24462
7.24461
7.24459
7.24458
7.24456
7.24454
7.24453
7.2445
7.24439
7.24447
7.24449
7.24449
7.24448
7.24448
7.24448
7.24449
7.2445
7.24451
7.24451
7.24452
7.24454
7.24454
7.24454
7.24455
7.24456
7.24457
7.24457
7.24458
7.2445
7.24427
7.24417
7.2441
7.24413
7.24415
7.2442
7.24414
7.24408
7.24408
7.24406
6.85527
6.8553
6.85529
6.85531
6.85531
6.85536
6.85541
6.85536
6.85534
6.85534
6.85536
6.8554
6.85551
6.8558
6.85586
6.85587
6.85587
6.85576
6.85553
6.85549
6.85569
6.85574
6.85571
6.85568
6.85566
6.85564
6.85561
6.85558
6.85553
6.85542
6.85549
6.8555
6.8555
6.8555
6.85551
6.85551
6.85553
6.85554
6.85555
6.85557
6.85558
6.8556
6.85562
6.85565
6.85566
6.85567
6.85569
6.85571
6.85571
6.85558
6.85536
6.85525
6.85522
6.85528
6.85533
6.85532
6.85527
6.85521
6.85522
6.8552
6.50519
6.50521
6.5052
6.50522
6.50522
6.50527
6.50531
6.5053
6.50526
6.50526
6.50525
6.50526
6.50536
6.50562
6.50575
6.50577
6.50574
6.50545
6.50532
6.50531
6.50552
6.50555
6.5055
6.50546
6.50542
6.50538
6.50533
6.50529
6.50524
6.5051
6.50518
6.50519
6.50518
6.50518
6.50519
6.5052
6.50522
6.50525
6.50528
6.50531
6.50534
6.50537
6.5054
6.50543
6.50547
6.50549
6.50552
6.50554
6.50549
6.50524
6.50513
6.50506
6.50508
6.50516
6.50518
6.50518
6.50514
6.50509
6.5051
6.50508
6.18843
6.18843
6.18843
6.18845
6.18844
6.18848
6.18853
6.18853
6.18849
6.18846
6.18845
6.18841
6.18847
6.1886
6.18888
6.18896
6.18889
6.18855
6.18844
6.18841
6.18862
6.18863
6.18857
6.1885
6.18843
6.18837
6.18832
6.18826
6.18818
6.18803
6.1881
6.18811
6.18811
6.18811
6.18812
6.18814
6.18817
6.18821
6.18825
6.1883
6.18835
6.18839
6.18844
6.18849
6.18855
6.18858
6.18863
6.18865
6.18854
6.18832
6.18822
6.1882
6.18826
6.18832
6.18833
6.18834
6.18831
6.18826
6.18828
6.18826
5.9005
5.9005
5.90051
5.90051
5.90052
5.90054
5.90058
5.90058
5.90057
5.90053
5.90049
5.90044
5.90046
5.90055
5.90089
5.90098
5.90082
5.90049
5.90038
5.90034
5.90053
5.90052
5.90042
5.90033
5.90024
5.90016
5.90007
5.9
5.8999
5.89974
5.8998
5.8998
5.8998
5.89981
5.89982
5.89985
5.8999
5.89995
5.90001
5.90007
5.90014
5.90022
5.90028
5.90035
5.90042
5.90049
5.90054
5.90051
5.90027
5.90018
5.90014
5.9002
5.90024
5.9003
5.90032
5.90033
5.90032
5.90028
5.90029
5.90029
5.6377
5.63771
5.63771
5.63772
5.63771
5.63774
5.63777
5.63776
5.63775
5.63774
5.63768
5.63761
5.63762
5.63771
5.63798
5.63806
5.63774
5.63753
5.63743
5.63738
5.63753
5.6375
5.63738
5.63726
5.63714
5.63702
5.63692
5.63681
5.63669
5.63652
5.63657
5.63656
5.63655
5.63656
5.63659
5.63663
5.63669
5.63676
5.63685
5.63693
5.63702
5.63711
5.63722
5.63731
5.6374
5.63749
5.63755
5.6375
5.63727
5.63721
5.63724
5.63729
5.63734
5.6374
5.63743
5.63746
5.63744
5.63742
5.63743
5.63743
5.39693
5.39694
5.39694
5.39694
5.39695
5.39696
5.39699
5.39697
5.39695
5.39693
5.3969
5.3968
5.39675
5.39679
5.39689
5.39709
5.39679
5.3966
5.39649
5.39641
5.39649
5.39646
5.39632
5.39616
5.39601
5.39586
5.39572
5.39559
5.39545
5.39525
5.39528
5.39528
5.39527
5.39528
5.39532
5.39538
5.39546
5.39555
5.39566
5.39578
5.39589
5.39601
5.39614
5.39626
5.39638
5.39648
5.39649
5.3964
5.3963
5.39627
5.39633
5.39639
5.39645
5.39654
5.39658
5.39661
5.3966
5.39658
5.3966
5.3966
5.17557
5.17558
5.17558
5.17558
5.17557
5.1756
5.17561
5.1756
5.17557
5.17554
5.17549
5.17541
5.17533
5.17531
5.17537
5.17551
5.17527
5.17509
5.17493
5.17481
5.17471
5.17476
5.17463
5.17443
5.17424
5.17405
5.17387
5.17371
5.17354
5.17332
5.17335
5.17333
5.17332
5.17334
5.17339
5.17347
5.17357
5.17369
5.17382
5.17396
5.17412
5.17428
5.17443
5.17459
5.17473
5.17481
5.17475
5.17475
5.17474
5.17474
5.17481
5.1749
5.17498
5.17506
5.17511
5.17516
5.17516
5.17514
5.17517
5.17517
4.97139
4.9714
4.97139
4.9714
4.97139
4.97141
4.97141
4.9714
4.97137
4.97133
4.97129
4.97119
4.97111
4.97101
4.97097
4.97095
4.97088
4.97074
4.97055
4.97038
4.97021
4.97025
4.97009
4.96985
4.96961
4.96938
4.96916
4.96896
4.96877
4.96852
4.96853
4.9685
4.96849
4.96852
4.96859
4.96869
4.96881
4.96896
4.96913
4.96931
4.9695
4.9697
4.96989
4.97008
4.97023
4.97031
4.97028
4.97036
4.97035
4.97039
4.97048
4.97059
4.97068
4.97077
4.97084
4.97088
4.9709
4.9709
4.97092
4.97092
4.7825
4.78251
4.7825
4.7825
4.7825
4.7825
4.7825
4.78249
4.78245
4.78241
4.78235
4.78225
4.78216
4.78205
4.78193
4.78187
4.78183
4.78167
4.78145
4.78124
4.78102
4.78102
4.78081
4.78052
4.78023
4.77994
4.77968
4.77944
4.77921
4.77894
4.77892
4.77889
4.77888
4.77892
4.77901
4.77913
4.77929
4.77947
4.77968
4.77991
4.78014
4.78037
4.7806
4.78081
4.78094
4.781
4.7811
4.7812
4.78125
4.78133
4.78144
4.78155
4.78167
4.78177
4.78185
4.7819
4.78192
4.78193
4.78195
4.78196
4.60725
4.60727
4.60726
4.60726
4.60725
4.60726
4.60726
4.60723
4.6072
4.60714
4.60708
4.60698
4.60687
4.60674
4.60661
4.60652
4.60646
4.60626
4.606
4.60575
4.60548
4.60542
4.60515
4.60481
4.60446
4.60412
4.6038
4.60351
4.60324
4.60294
4.60291
4.60287
4.60286
4.60291
4.60302
4.60317
4.60336
4.6036
4.60385
4.60412
4.6044
4.60468
4.60495
4.60515
4.60522
4.60539
4.60555
4.6057
4.6058
4.6059
4.60605
4.60618
4.6063
4.60642
4.6065
4.60657
4.6066
4.60662
4.60664
4.60665
4.44426
4.44426
4.44426
4.44426
4.44425
4.44426
4.44425
4.44422
4.44419
4.44413
4.44405
4.44394
4.44383
4.44368
4.44354
4.44343
4.44332
4.4431
4.4428
4.44249
4.44218
4.442
4.44171
4.44131
4.44089
4.44049
4.44012
4.43977
4.43945
4.43912
4.43906
4.43901
4.43901
4.43908
4.43921
4.4394
4.43964
4.43992
4.44022
4.44054
4.44087
4.4412
4.44151
4.44172
4.44185
4.44206
4.44227
4.44241
4.44255
4.44272
4.44289
4.44305
4.44319
4.44332
4.44342
4.44349
4.44353
4.44355
4.44358
4.44359
4.29228
4.29228
4.29229
4.29228
4.29227
4.29228
4.29227
4.29224
4.2922
4.29214
4.29206
4.29194
4.29181
4.29166
4.29149
4.29135
4.29123
4.29095
4.29062
4.29024
4.28986
4.28949
4.28924
4.28881
4.28833
4.28785
4.2874
4.28699
4.28662
4.28625
4.28617
4.28611
4.28611
4.2862
4.28636
4.28659
4.28689
4.28722
4.28758
4.28796
4.28836
4.28872
4.28901
4.28923
4.28948
4.28976
4.29001
4.29019
4.29036
4.29058
4.29077
4.29095
4.2911
4.29124
4.29135
4.29143
4.29148
4.29151
4.29154
4.29155
4.15026
4.15026
4.15026
4.15026
4.15025
4.15026
4.15025
4.15021
4.15017
4.15011
4.15002
4.1499
4.14976
4.14959
4.1494
4.14924
4.14908
4.14879
4.1484
4.14796
4.14751
4.14703
4.14674
4.14625
4.14568
4.14512
4.14459
4.14411
4.14367
4.14326
4.14315
4.14308
4.14309
4.1432
4.14341
4.14369
4.14404
4.14443
4.14487
4.14531
4.14576
4.14616
4.1464
4.14674
4.14709
4.14743
4.14772
4.14793
4.14816
4.14839
4.14861
4.14881
4.14897
4.14913
4.14925
4.14934
4.14939
4.14943
4.14946
4.14948
4.01725
4.01726
4.01725
4.01725
4.01725
4.01725
4.01725
4.01721
4.01717
4.01711
4.01702
4.01689
4.01674
4.01656
4.01635
4.01617
4.01597
4.01564
4.01522
4.01473
4.0142
4.01366
4.01323
4.01268
4.01202
4.01136
4.01074
4.01018
4.00967
4.00921
4.00907
4.00899
4.00901
4.00915
4.00941
4.00976
4.01017
4.01064
4.01114
4.01165
4.01217
4.0126
4.01291
4.01332
4.01374
4.01412
4.01441
4.01469
4.01497
4.01524
4.01548
4.01569
4.01588
4.01605
4.01617
4.01627
4.01633
4.01637
4.01641
4.01642
3.89245
3.89245
3.89245
3.89245
3.89244
3.89245
3.89245
3.89241
3.89237
3.89231
3.89222
3.89209
3.89193
3.89174
3.89153
3.8913
3.89106
3.89071
3.89025
3.88971
3.8891
3.88846
3.88781
3.88727
3.88654
3.88578
3.88504
3.88438
3.8838
3.88327
3.8831
3.88301
3.88305
3.88323
3.88354
3.88396
3.88445
3.88501
3.88557
3.88612
3.88667
3.88715
3.88763
3.88813
3.88861
3.88902
3.88935
3.88968
3.89
3.8903
3.89056
3.89079
3.89099
3.89117
3.8913
3.89141
3.89148
3.89152
3.89157
3.89158
3.77511
3.77512
3.77512
3.77512
3.77512
3.77512
3.77512
3.77509
3.77506
3.77499
3.7749
3.77477
3.77461
3.77441
3.77417
3.77389
3.77361
3.77327
3.77279
3.7722
3.77152
3.77077
3.77
3.76937
3.76853
3.76764
3.76678
3.766
3.76531
3.76472
3.7645
3.7644
3.76447
3.7647
3.76509
3.76559
3.76617
3.76679
3.76743
3.76808
3.76865
3.76924
3.76985
3.77044
3.77096
3.77139
3.77178
3.77216
3.77253
3.77285
3.77314
3.77338
3.77359
3.77377
3.77392
3.77403
3.7741
3.77416
3.7742
3.77422
3.66461
3.66461
3.66462
3.66462
3.66462
3.66463
3.66463
3.66461
3.66457
3.66451
3.66442
3.6643
3.66414
3.66394
3.66369
3.66338
3.66307
3.66271
3.66219
3.66155
3.66081
3.65998
3.6591
3.65831
3.65736
3.65631
3.6553
3.65438
3.65358
3.6529
3.65263
3.65253
3.65263
3.65293
3.65339
3.65399
3.65465
3.65537
3.65613
3.65688
3.65755
3.65825
3.65895
3.6596
3.66017
3.66064
3.66108
3.66152
3.66191
3.66225
3.66255
3.66281
3.66303
3.66323
3.66337
3.66349
3.66357
3.66363
3.66367
3.66369
3.56036
3.56037
3.56037
3.56038
3.56038
3.56039
3.5604
3.56038
3.56035
3.5603
3.56022
3.5601
3.55995
3.55975
3.55949
3.55918
3.55884
3.55844
3.55791
3.55722
3.55641
3.55549
3.55451
3.55349
3.55252
3.55129
3.5501
3.54902
3.54808
3.54729
3.54697
3.54687
3.54701
3.54739
3.54796
3.54867
3.54935
3.55018
3.551
3.55188
3.55273
3.55356
3.55434
3.55503
3.55562
3.55616
3.55668
3.55715
3.55757
3.55793
3.55825
3.55852
3.55875
3.55895
3.5591
3.55922
3.55931
3.55937
3.55941
3.55943
3.46185
3.46186
3.46187
3.46188
3.46189
3.4619
3.46192
3.46191
3.46189
3.46185
3.46177
3.46166
3.46152
3.46132
3.46107
3.46075
3.46036
3.45993
3.4594
3.4587
3.45784
3.45685
3.45576
3.45511
3.50149
3.50021
3.4989
3.4977
3.49666
3.4958
3.49543
3.49534
3.4955
3.49593
3.49656
3.49734
3.45019
3.45073
3.45171
3.45273
3.45373
3.45466
3.45551
3.45623
3.45688
3.45749
3.45806
3.45857
3.459
3.45939
3.45971
3.45999
3.46023
3.46043
3.46059
3.46072
3.4608
3.46086
3.46091
3.46093
3.36863
3.36864
3.36865
3.36867
3.36868
3.3687
3.36873
3.36873
3.36872
3.36869
3.36863
3.36853
3.3684
3.36822
3.36797
3.36765
3.36725
3.36678
3.36623
3.36555
3.36467
3.36362
3.36297
3.40698
3.40378
3.40248
3.40091
3.39945
3.39819
3.39716
3.39669
3.39658
3.39679
3.39732
3.39808
3.39894
3.40165
3.35706
3.35784
3.35899
3.3601
3.36112
3.36203
3.3628
3.36351
3.36418
3.36478
3.36531
3.36576
3.36616
3.3665
3.36678
3.36702
3.36722
3.36738
3.36751
3.3676
3.36766
3.3677
3.36772
3.28029
3.2803
3.28032
3.28034
3.28036
3.28039
3.28042
3.28043
3.28043
3.28041
3.28037
3.28029
3.28018
3.28002
3.27979
3.27949
3.2791
3.27862
3.27806
3.27738
3.2765
3.27544
3.27517
3.31483
3.31167
3.33254
3.33077
3.32909
3.32764
3.32645
3.32593
3.3258
3.32607
3.32668
3.32754
3.30613
3.30859
3.26829
3.26894
3.27022
3.27143
3.27251
3.27346
3.27431
3.2751
3.27581
3.27643
3.27697
3.27744
3.27784
3.27818
3.27847
3.27871
3.27891
3.27908
3.2792
3.27929
3.27934
3.27939
3.27941
3.19646
3.19647
3.19649
3.19651
3.19654
3.19658
3.19662
3.19664
3.19666
3.19666
3.19664
3.19658
3.19649
3.19635
3.19615
3.19588
3.19551
3.19505
3.19448
3.1938
3.19297
3.19199
3.19213
3.22774
3.22465
3.24339
3.24136
3.23936
3.23765
3.23633
3.23568
3.23555
3.23587
3.23656
3.23742
3.21845
3.22046
3.1842
3.18471
3.18607
3.18735
3.18847
3.18949
3.19042
3.19126
3.192
3.19264
3.19319
3.19366
3.19406
3.1944
3.19469
3.19493
3.19513
3.19529
3.19541
3.19549
3.19555
3.1956
3.19562
3.1168
3.11681
3.11683
3.11686
3.1169
3.11695
3.117
3.11704
3.11707
3.11709
3.11709
3.11705
3.11699
3.11689
3.11672
3.11649
3.11617
3.11575
3.11521
3.11455
3.11377
3.11295
3.11355
3.14552
3.14253
3.15939
3.157
3.15488
3.15306
3.15164
3.15088
3.15064
3.15087
3.15151
3.15249
3.13519
3.13717
3.10451
3.10482
3.10623
3.10755
3.10875
3.10984
3.11082
3.11169
3.11243
3.11308
3.11363
3.1141
3.1145
3.11483
3.11511
3.11534
3.11554
3.1157
3.11581
3.1159
3.11595
3.11599
3.11601
3.04101
3.04103
3.04105
3.04109
3.04113
3.04119
3.04125
3.0413
3.04135
3.04139
3.04142
3.04141
3.04138
3.04131
3.0412
3.04101
3.04075
3.0404
3.03993
3.03935
3.03866
3.03805
3.03915
3.06787
3.0654
3.08073
3.07781
3.07645
3.07531
3.07428
3.07328
3.07233
3.07182
3.07196
3.07285
3.05652
3.05862
3.02894
3.02899
3.03041
3.0318
3.03307
3.03421
3.0352
3.03607
3.03681
3.03745
3.03799
3.03845
3.03884
3.03916
3.03943
3.03966
3.03984
3.03999
3.0401
3.04018
3.04023
3.04027
3.04029
2.96882
2.96884
2.96886
2.96891
2.96896
2.96903
2.9691
2.96917
2.96924
2.9693
2.96935
2.96938
2.96938
2.96936
2.96929
2.96916
2.96898
2.96871
2.96836
2.96791
2.9674
2.96711
2.96868
2.99463
2.99343
3.00732
3.0053
3.00706
3.01021
3.01213
3.01015
3.00538
3.00115
2.99921
2.99898
2.9825
2.98465
2.95738
2.95711
2.95851
2.9599
2.96117
2.9623
2.96328
2.96413
2.96486
2.96548
2.966
2.96645
2.96682
2.96712
2.96738
2.96759
2.96777
2.9679
2.96801
2.96808
2.96812
2.96816
2.96818
2.89998
2.9
2.90003
2.90008
2.90014
2.90022
2.9003
2.90039
2.90048
2.90056
2.90064
2.9007
2.90074
2.90076
2.90075
2.90069
2.90059
2.90043
2.90022
2.89996
2.89973
2.89988
2.90188
2.92558
2.92686
2.94011
2.94299
2.95787
2.98411
3.00577
2.99652
2.9681
2.94634
2.93579
2.9319
2.91374
2.91516
2.88972
2.889
2.89028
2.89159
2.89281
2.89389
2.89483
2.89564
2.89633
2.89692
2.89741
2.89783
2.89818
2.89847
2.8987
2.89889
2.89906
2.89918
2.89927
2.89934
2.89938
2.89941
2.89942
2.83426
2.83428
2.83431
2.83437
2.83444
2.83453
2.83463
2.83473
2.83484
2.83494
2.83505
2.83514
2.83522
2.83529
2.83534
2.83535
2.83534
2.8353
2.83525
2.83521
2.83535
2.83605
2.83856
2.86075
2.86568
2.88064
2.90133
2.97189
3.16089
3.38854
3.2877
3.04756
2.92768
2.88661
2.87302
2.8508
2.85005
2.82603
2.8245
2.8255
2.82665
2.82775
2.82874
2.82961
2.83036
2.831
2.83154
2.832
2.83238
2.83269
2.83295
2.83316
2.83334
2.83348
2.83359
2.83368
2.83373
2.83377
2.83379
2.8338
2.77145
2.77147
2.77151
2.77157
2.77165
2.77175
2.77186
2.77198
2.77211
2.77224
2.77237
2.7725
2.77262
2.77273
2.77284
2.77293
2.773
2.77308
2.7732
2.77341
2.77395
2.77523
2.7783
2.80004
2.81006
2.83159
2.90232
3.22785
4.47758
9.11493
7.26178
3.86634
2.99955
2.8572
2.82257
2.79449
2.78947
2.76609
2.76341
2.76392
2.76484
2.76576
2.76662
2.76739
2.76806
2.76863
2.76912
2.76952
2.76986
2.77014
2.77037
2.77056
2.77071
2.77083
2.77093
2.771
2.77105
2.77108
2.7711
2.77111
2.71137
2.71139
2.71143
2.7115
2.71158
2.71169
2.71182
2.71195
2.7121
2.71225
2.71241
2.71257
2.71273
2.71289
2.71305
2.7132
2.71337
2.71356
2.71383
2.71427
2.7152
2.71705
2.72069
2.74282
2.75908
2.79402
2.96161
3.99575
12.836
14.026
3.24017
2.8457
2.77965
2.74437
2.73307
2.70974
2.70552
2.70532
2.70592
2.70662
2.70731
2.70796
2.70853
2.70902
2.70944
2.70979
2.71008
2.71032
2.71052
2.71068
2.71081
2.71091
2.71099
2.71105
2.71109
2.71112
2.71114
2.71115
2.65384
2.65386
2.65391
2.65398
2.65407
2.65419
2.65433
2.65448
2.65464
2.65481
2.655
2.65518
2.65538
2.65558
2.65579
2.656
2.65624
2.65653
2.65693
2.65756
2.6588
2.6611
2.66537
2.6883
2.71152
2.76223
3.03482
4.55767
36.4667
129.877
167.508
3.76499
2.84606
2.74211
2.69923
2.68063
2.65671
2.6507
2.64957
2.64979
2.6502
2.6507
2.65118
2.65163
2.65203
2.65237
2.65266
2.6529
2.6531
2.65326
2.65338
2.65349
2.65357
2.65363
2.65368
2.65371
2.65372
2.65374
2.65374
2.5987
2.59872
2.59877
2.59885
2.59895
2.59908
2.59922
2.59939
2.59957
2.59976
2.59997
2.60018
2.60041
2.60065
2.6009
2.60116
2.60145
2.60181
2.60229
2.60304
2.60445
2.60718
2.61225
2.63609
2.66664
2.73164
3.07822
4.60467
33.7665
173.692
146.907
227.781
10.2743
2.88728
2.71032
2.65702
2.63159
2.60649
2.59863
2.59641
2.59618
2.59627
2.59655
2.59687
2.59719
2.59748
2.59774
2.59796
2.59814
2.59829
2.59841
2.5985
2.59857
2.59863
2.59867
2.59871
2.59872
2.59873
2.59874
2.59874
2.5458
2.54583
2.54588
2.54596
2.54607
2.5462
2.54636
2.54654
2.54673
2.54694
2.54717
2.54741
2.54766
2.54793
2.54821
2.54851
2.54884
2.54923
2.54975
2.55054
2.55197
2.55511
2.56099
2.5858
2.62468
2.6999
3.09645
4.50916
13.6188
103.493
126.76
132.325
27.378
3.05801
2.68522
2.61531
2.58528
2.55849
2.54894
2.54556
2.54487
2.54463
2.54468
2.54482
2.54501
2.54519
2.54536
2.54551
2.54563
2.54573
2.54581
2.54587
2.54591
2.54595
2.54597
2.54598
2.54599
2.54599
2.54599
2.54599
2.49502
2.49504
2.4951
2.49519
2.4953
2.49544
2.49561
2.49579
2.496
2.49623
2.49648
2.49673
2.49701
2.4973
2.49761
2.49792
2.49825
2.49862
2.49913
2.49994
2.50139
2.50487
2.51139
2.53725
2.5871
2.66621
3.14666
4.70227
8.3974
31.5646
58.744
105.44
36.2034
3.302
2.6659
2.57197
2.54108
2.51212
2.50123
2.49677
2.49564
2.49508
2.49491
2.49488
2.49494
2.49502
2.4951
2.49518
2.49524
2.49529
2.49533
2.49535
2.49537
2.49538
2.49538
2.49538
2.49537
2.49536
2.49536
2.49535
2.44622
2.44625
2.44631
2.4464
2.44651
2.44666
2.44684
2.44703
2.44725
2.44749
2.44776
2.44803
2.44832
2.44862
2.44893
2.44922
2.44954
2.44994
2.45047
2.45128
2.45273
2.45639
2.46324
2.49043
2.55185
2.6568
3.65705
8.11459
10.7873
18.028
44.985
101.046
32.6827
3.334
2.65513
2.52721
2.49869
2.46704
2.45517
2.44982
2.44827
2.44743
2.44707
2.44689
2.44683
2.44681
2.44682
2.44682
2.44683
2.44684
2.44683
2.44682
2.44681
2.44679
2.44678
2.44676
2.44674
2.44672
2.44671
2.4467
2.3993
2.39932
2.39938
2.39948
2.3996
2.39975
2.39993
2.40014
2.40037
2.40062
2.4009
2.40118
2.40148
2.40175
2.40205
2.40239
2.40276
2.40319
2.40372
2.40452
2.40599
2.40965
2.41711
2.44739
2.52024
2.86262
7.43382
13.8425
19.715
34.8244
66.5314
91.2555
24.2763
3.28629
2.654
2.48493
2.45827
2.42291
2.41044
2.40448
2.40257
2.40149
2.40097
2.4007
2.40055
2.40045
2.40038
2.40033
2.40028
2.40024
2.4002
2.40016
2.40012
2.40008
2.40004
2.40001
2.39998
2.39995
2.39994
2.39992
2.35414
2.35416
2.35423
2.35432
2.35445
2.35461
2.3548
2.35501
2.35525
2.35551
2.35578
2.35606
2.35635
2.35664
2.35699
2.35736
2.35776
2.35821
2.35875
2.35955
2.3611
2.36473
2.37385
2.40969
2.55266
3.68002
11.0879
24.6715
37.942
55.9603
76.9257
72.702
16.4329
3.19687
2.65276
2.44992
2.41985
2.38002
2.36693
2.36065
2.35845
2.35724
2.35658
2.35619
2.35596
2.3558
2.35568
2.35558
2.35549
2.3554
2.35533
2.35525
2.35519
2.35513
2.35507
2.35502
2.35498
2.35495
2.35493
2.35491
2.31065
2.31067
2.31074
2.31083
2.31096
2.31113
2.31132
2.31154
2.31178
2.31203
2.31229
2.31257
2.31289
2.31323
2.31361
2.314
2.31442
2.31489
2.31548
2.3163
2.31795
2.32169
2.33395
2.37686
2.67658
4.69512
13.5882
35.7317
54.115
67.4695
73.1707
52.6507
11.0745
3.09647
2.63559
2.42456
2.38231
2.33844
2.32463
2.31829
2.31579
2.3145
2.31376
2.31327
2.31295
2.31274
2.3126
2.31246
2.31234
2.31222
2.31211
2.31201
2.31192
2.31184
2.31177
2.3117
2.31165
2.31161
2.31158
2.31156
2.26873
2.26876
2.26882
2.26892
2.26905
2.26922
2.26942
2.26964
2.26987
2.27011
2.27038
2.27069
2.27103
2.2714
2.27179
2.27221
2.27266
2.27316
2.27379
2.27466
2.27642
2.28053
2.29708
2.34801
2.8231
5.3712
14.5551
39.2623
60.7344
66.973
61.2868
36.3916
7.87028
2.99897
2.60395
2.4087
2.34509
2.29842
2.28349
2.27727
2.27456
2.27317
2.2724
2.27188
2.27151
2.27124
2.27104
2.27089
2.27074
2.27059
2.27045
2.27033
2.27022
2.27012
2.27003
2.26996
2.26989
2.26984
2.26981
2.26979
2.22831
2.22834
2.2284
2.2285
2.22864
2.2288
2.229
2.22921
2.22944
2.22968
2.22998
2.2303
2.23066
2.23104
2.23145
2.23189
2.23237
2.23291
2.23359
2.23452
2.23643
2.24104
2.26253
2.32105
2.93179
5.68687
14.4395
37.2856
59.4146
61.1562
48.2564
24.7017
6.04229
2.91587
2.5725
2.40109
2.30805
2.2603
2.24352
2.23744
2.23467
2.23326
2.2324
2.23188
2.23149
2.23118
2.23095
2.23076
2.2306
2.23043
2.23028
2.23013
2.23
2.22988
2.22978
2.22969
2.22962
2.22956
2.22953
2.2295
2.18931
2.18933
2.1894
2.1895
2.18963
2.18979
2.18997
2.19017
2.19041
2.19069
2.19099
2.19132
2.19169
2.19208
2.19251
2.19297
2.19347
2.19406
2.19479
2.19582
2.19785
2.20294
2.22961
2.29388
2.9882
5.7758
13.899
34.0277
54.3791
57.9819
40.8744
18.1448
5.06663
2.8904
2.55911
2.39768
2.27137
2.22426
2.20476
2.19879
2.19605
2.19468
2.1938
2.19322
2.19279
2.19246
2.19223
2.19203
2.19184
2.19167
2.19149
2.19133
2.19118
2.19105
2.19093
2.19084
2.19076
2.19069
2.19065
2.19062
2.15164
2.15166
2.15173
2.15183
2.15196
2.15211
2.15228
2.1525
2.15275
2.15303
2.15334
2.15368
2.15405
2.15445
2.15488
2.15536
2.15589
2.15649
2.15726
2.15843
2.16057
2.16614
2.19786
2.26546
3.00251
5.75823
13.0575
30.589
49.2704
55.4743
42.9264
19.8615
5.66346
3.18039
2.61522
2.38395
2.23538
2.19015
2.16728
2.16133
2.15868
2.15735
2.15649
2.1559
2.15547
2.15511
2.15482
2.1546
2.1544
2.15421
2.15403
2.15385
2.15369
2.15355
2.15342
2.15331
2.15322
2.15315
2.15311
2.15308
2.11526
2.11527
2.11534
2.11543
2.11555
2.1157
2.11589
2.11611
2.11636
2.11664
2.11695
2.11729
2.11766
2.11806
2.11851
2.11899
2.11952
2.12013
2.12098
2.12226
2.1245
2.13047
2.16666
2.23667
2.99357
5.6366
12.0442
27.1277
44.2679
52.3194
45.7523
27.9315
9.70082
4.07071
2.95956
2.35795
2.20171
2.15746
2.13117
2.1251
2.12254
2.12125
2.12041
2.11983
2.11938
2.11902
2.11869
2.11842
2.11821
2.118
2.11781
2.11763
2.11746
2.11731
2.11717
2.11705
2.11696
2.11688
2.11684
2.1168
2.08008
2.08009
2.08015
2.08024
2.08036
2.08052
2.08071
2.08093
2.08118
2.08145
2.08176
2.0821
2.08247
2.08287
2.08331
2.08379
2.08431
2.08496
2.08587
2.08721
2.08956
2.09579
2.13538
2.20725
2.96445
5.44889
10.9422
23.6236
39.1221
48.4661
47.3277
35.1252
17.3847
5.86388
3.41937
2.42795
2.17022
2.12536
2.09642
2.09011
2.08762
2.08634
2.08552
2.08493
2.08448
2.08411
2.08377
2.08347
2.0832
2.08299
2.08278
2.08259
2.08242
2.08226
2.08211
2.08199
2.08189
2.08181
2.08176
2.08172
2.04605
2.04606
2.04612
2.0462
2.04632
2.04648
2.04667
2.04689
2.04714
2.04741
2.04772
2.04805
2.04842
2.04881
2.04925
2.04971
2.05023
2.0509
2.05184
2.05321
2.05569
2.06199
2.10361
2.17686
2.91934
5.23483
9.8305
20.0756
33.5711
43.6892
46.2985
39.5489
24.4621
8.59791
3.74351
2.64504
2.14006
2.09332
2.06293
2.05636
2.05387
2.05259
2.05177
2.05118
2.05071
2.05032
2.04997
2.04965
2.04936
2.0491
2.04889
2.04869
2.04851
2.04835
2.0482
2.04807
2.04796
2.04788
2.04782
2.04778
2.01312
2.01312
2.01318
2.01327
2.01339
2.01355
2.01374
2.01395
2.01419
2.01447
2.01476
2.01509
2.01545
2.01583
2.01625
2.01668
2.01722
2.01789
2.01884
2.02021
2.02281
2.02905
2.07125
2.14531
2.86471
5.01152
8.78158
16.6497
27.7176
37.9252
43.4113
41.0089
28.296
10.9332
3.95606
2.89726
2.11444
2.0613
2.03053
2.02377
2.02124
2.01994
2.01911
2.0185
2.01802
2.01761
2.01725
2.01691
2.01661
2.01632
2.01607
2.01587
2.01568
2.01551
2.01536
2.01523
2.01512
2.01503
2.01498
2.01493
1.98123
1.98123
1.98129
1.98138
1.9815
1.98166
1.98184
1.98205
1.98229
1.98256
1.98285
1.98317
1.98351
1.98388
1.98428
1.98469
1.98523
1.98587
1.98682
1.98818
1.99088
1.99697
2.03857
2.11281
2.80969
4.83224
7.88794
13.6259
22.2374
32.2538
40.097
40.3897
29.271
11.9957
4.04801
3.08891
2.09443
2.02952
1.99911
1.99227
1.98968
1.98834
1.98749
1.98685
1.98636
1.98593
1.98554
1.98519
1.98487
1.98458
1.98431
1.98407
1.98388
1.98371
1.98355
1.98342
1.9833
1.98322
1.98316
1.98311
1.95034
1.95034
1.9504
1.95049
1.95061
1.95076
1.95094
1.95115
1.95138
1.95164
1.95193
1.95223
1.95256
1.95291
1.95328
1.95369
1.95421
1.95482
1.95576
1.95709
1.95985
1.96576
2.0061
2.08024
2.76334
4.73139
7.22895
11.2695
18.3025
28.5776
37.7347
38.6855
28.2615
11.8887
4.03017
3.19396
2.07741
1.99825
1.96856
1.96177
1.95911
1.95774
1.95685
1.95619
1.95567
1.95522
1.95482
1.95445
1.95412
1.95381
1.95353
1.95327
1.95305
1.95288
1.95273
1.95259
1.95248
1.95238
1.95232
1.95227
1.9204
1.9204
1.92046
1.92055
1.92066
1.92082
1.92099
1.9212
1.92143
1.92168
1.92196
1.92225
1.92256
1.92288
1.92324
1.92364
1.92413
1.92471
1.92563
1.92695
1.92973
1.93543
1.97444
2.04909
2.73906
4.75327
6.80119
9.97045
16.9655
27.8454
36.4485
36.3751
26.3892
11.2537
3.97097
3.22442
2.06069
1.96763
1.93888
1.93219
1.92948
1.92807
1.92714
1.92646
1.92591
1.92544
1.92502
1.92463
1.92429
1.92397
1.92368
1.92342
1.92318
1.92298
1.92283
1.9227
1.92258
1.92249
1.92243
1.92237
1.89137
1.89137
1.89143
1.89151
1.89163
1.89178
1.89196
1.89216
1.89238
1.89263
1.8929
1.89318
1.89347
1.89377
1.89412
1.8945
1.89497
1.89551
1.89641
1.89773
1.90053
1.90631
1.94461
2.02083
2.74232
4.93689
6.65563
10.0463
17.9318
28.6152
35.319
34.025
24.4048
10.4403
3.89449
3.20326
2.04495
1.93776
1.91005
1.90347
1.90073
1.89928
1.89832
1.8976
1.89703
1.89654
1.8961
1.89571
1.89534
1.89502
1.89472
1.89445
1.8942
1.894
1.89382
1.89369
1.89358
1.89349
1.89343
1.89337
1.86321
1.86321
1.86326
1.86335
1.86347
1.86361
1.86379
1.86398
1.8642
1.86445
1.86471
1.86498
1.86525
1.86555
1.86588
1.86624
1.86669
1.86721
1.8681
1.86944
1.87228
1.87843
1.91723
1.99984
2.80414
5.21229
6.82602
11.0301
19.7407
29.3534
34.0023
31.7063
22.4491
9.60508
3.80651
3.14997
2.03233
1.90864
1.88201
1.87555
1.8728
1.87132
1.87033
1.86958
1.86899
1.86848
1.86803
1.86762
1.86725
1.86691
1.8666
1.86632
1.86608
1.86587
1.86568
1.86553
1.86542
1.86534
1.86528
1.86522
1.83588
1.83588
1.83593
1.83602
1.83614
1.83628
1.83645
1.83665
1.83686
1.8371
1.83735
1.83761
1.83787
1.83817
1.8385
1.83884
1.83927
1.83978
1.84066
1.84205
1.84497
1.85187
1.89224
1.98797
2.93272
5.68136
7.8005
13.7291
22.7137
29.9931
32.0597
28.2167
18.8601
7.6323
3.51051
3.08057
2.02173
1.88029
1.85473
1.84839
1.84565
1.84414
1.84313
1.84236
1.84175
1.84122
1.84076
1.84034
1.83996
1.83961
1.8393
1.83901
1.83876
1.83855
1.83836
1.8382
1.83808
1.838
1.83795
1.83789
1.80935
1.80934
1.8094
1.80948
1.8096
1.80974
1.80991
1.8101
1.81032
1.81055
1.8108
1.81104
1.81131
1.81161
1.81192
1.81226
1.81268
1.8132
1.81409
1.81554
1.81861
1.82683
1.87636
2.14337
3.09173
5.70404
8.38737
14.7844
23.2369
29.3007
30.4234
26.1856
17.316
7.15154
3.4355
3.0044
1.93926
1.85286
1.82817
1.82195
1.81924
1.8177
1.81668
1.81589
1.81527
1.81473
1.81425
1.81382
1.81344
1.81308
1.81277
1.81248
1.81223
1.81201
1.81182
1.81166
1.81153
1.81145
1.8114
1.81134
1.78357
1.78357
1.78362
1.78371
1.78382
1.78397
1.78414
1.78433
1.78454
1.78478
1.78502
1.78526
1.78553
1.78583
1.78614
1.78648
1.7869
1.78744
1.78834
1.78987
1.79319
1.80337
1.86645
2.22627
3.93459
6.5068
10.6576
17.7003
24.6551
28.2867
27.2187
21.8608
13.2208
5.48873
3.16084
2.69173
1.92093
1.8262
1.80229
1.79618
1.79353
1.79197
1.79095
1.79015
1.78952
1.78896
1.78848
1.78805
1.78765
1.7873
1.78698
1.78669
1.78643
1.78621
1.78602
1.78586
1.78573
1.78564
1.78559
1.78553
1.75853
1.75852
1.75858
1.75866
1.75878
1.75892
1.75909
1.75929
1.7595
1.75973
1.75996
1.76022
1.7605
1.7608
1.76111
1.76146
1.76189
1.76246
1.76339
1.76502
1.76868
1.78138
1.86042
2.30467
4.03724
6.70206
11.1713
18.0224
24.2674
27.2162
25.8158
20.6635
12.4916
5.28991
3.1015
2.63051
1.9019
1.80031
1.77708
1.77108
1.76849
1.76692
1.76591
1.76509
1.76446
1.7639
1.76341
1.76297
1.76258
1.76222
1.76189
1.7616
1.76135
1.76113
1.76093
1.76078
1.76065
1.76055
1.7605
1.76044
1.73418
1.73417
1.73423
1.73432
1.73443
1.73458
1.73475
1.73495
1.73516
1.73539
1.73563
1.73589
1.73618
1.73648
1.73681
1.73717
1.73762
1.73822
1.7392
1.74093
1.74501
1.7606
1.8565
2.37239
4.11625
6.86709
11.5697
18.2162
23.8276
26.198
24.5009
19.5638
11.8319
5.10517
3.04647
2.57072
1.88218
1.77511
1.75249
1.74662
1.74409
1.74252
1.74152
1.74069
1.74006
1.7395
1.73901
1.73857
1.73818
1.73782
1.73749
1.7372
1.73694
1.73672
1.73653
1.73637
1.73625
1.73615
1.73609
1.73604
1.7105
1.7105
1.71055
1.71064
1.71076
1.71091
1.71108
1.71128
1.7115
1.71172
1.71197
1.71225
1.71254
1.71286
1.7132
1.71358
1.71405
1.7147
1.71573
1.71756
1.72211
1.74076
1.85328
2.42754
4.17317
7.00217
11.8824
18.3241
23.3557
25.2087
23.2643
18.5484
11.2331
4.93543
2.99615
2.51324
1.86214
1.75058
1.7285
1.72276
1.7203
1.71874
1.71775
1.71693
1.7163
1.71574
1.71526
1.71482
1.71442
1.71406
1.71374
1.71345
1.7132
1.71298
1.71279
1.71263
1.7125
1.7124
1.71235
1.71228
1.68747
1.68746
1.68752
1.68761
1.68773
1.68788
1.68806
1.68826
1.68848
1.68871
1.68897
1.68926
1.68956
1.68989
1.69025
1.69066
1.69116
1.69186
1.69293
1.69488
1.69991
1.7216
1.84969
2.47034
4.2113
7.11167
12.133
18.371
22.8613
24.2415
22.1044
17.6159
10.6921
4.78086
2.95053
2.45863
1.84215
1.72672
1.70508
1.69949
1.6971
1.69556
1.69459
1.69377
1.69315
1.69259
1.69212
1.69168
1.69129
1.69094
1.69062
1.69033
1.69008
1.68986
1.68967
1.68951
1.68938
1.68929
1.68923
1.68917
1.66505
1.66505
1.66511
1.6652
1.66532
1.66547
1.66566
1.66586