/*--------------------------------*- C++ -*----------------------------------*\
  =========                 |
  \\      /  F ield         | OpenFOAM: The Open Source CFD Toolbox
   \\    /   O peration     | Website:  https://openfoam.org
    \\  /    A nd           | Version:  12
     \\/     M anipulation  |
\*---------------------------------------------------------------------------*/
FoamFile
{
    format      ascii;
    class       volScalarField;
    location    "200";
    object      p;
}
// * * * * * * * * * * * * * * * * * * * * * * * * * * * * * * * * * * * * * //

dimensions      [0 2 -2 0 0 0 0];

internalField   nonuniform List<scalar> 
16227
(
0.0595427
0.0596462
0.0598527
0.0601618
0.0605728
0.0610848
0.0616967
0.0624065
0.0632121
0.0641106
0.0650986
0.0661716
0.0673245
0.0685517
0.0698461
0.0711998
0.0726036
0.0740475
0.0755201
0.0770092
0.0785016
0.0799834
0.0814402
0.0828573
0.0842201
0.0855141
0.0867258
0.0878425
0.088853
0.0897476
0.0905186
0.0911604
0.0916696
0.0920453
0.0922887
0.092403
0.0923939
0.0922686
0.0920359
0.091706
0.0912901
0.0908001
0.0902485
0.0896479
0.0890108
0.0883497
0.0876766
0.0870028
0.0863392
0.0856958
0.0850819
0.0845057
0.083975
0.0834962
0.0830752
0.0827169
0.0824256
0.0822043
0.0820555
0.0819806
0.0594666
0.0595701
0.0597769
0.0600865
0.0604983
0.0610113
0.0616244
0.0623359
0.0631435
0.0640445
0.0650355
0.0661123
0.0672697
0.068502
0.0698023
0.0711627
0.0725741
0.0740262
0.0755078
0.0770066
0.0785093
0.0800017
0.0814694
0.0828973
0.0842706
0.0855747
0.0867958
0.0879208
0.0889383
0.0898387
0.0906138
0.091258
0.091768
0.0921428
0.0923836
0.0924939
0.0924794
0.0923476
0.0921073
0.0917692
0.0913444
0.0908453
0.0902844
0.0896745
0.0890283
0.0883585
0.0876769
0.0869952
0.0863242
0.085674
0.0850539
0.0844722
0.0839365
0.0834535
0.0830289
0.0826677
0.082374
0.082151
0.082001
0.0819255
0.0592978
0.0594017
0.0596091
0.0599199
0.0603333
0.0608485
0.0614644
0.0621795
0.0629916
0.0638981
0.0648958
0.065981
0.0671482
0.0683919
0.0697052
0.0710804
0.0725084
0.0739789
0.0754805
0.0770008
0.0785262
0.0800422
0.0815339
0.0829859
0.0843827
0.0857092
0.0869509
0.0880944
0.0891277
0.0900407
0.090825
0.0914747
0.0919864
0.0923591
0.0925943
0.0926957
0.0926692
0.0925228
0.0922659
0.0919094
0.0914651
0.0909457
0.0903641
0.0897336
0.0890673
0.0883779
0.0876777
0.0869784
0.0862911
0.0856259
0.084992
0.0843981
0.0838515
0.0833591
0.0829266
0.0825588
0.0822599
0.0820329
0.0818804
0.0818036
0.0590135
0.059118
0.0593266
0.0596392
0.0600553
0.060574
0.0611945
0.0619156
0.0627351
0.0636509
0.0646599
0.0657589
0.0669425
0.0682051
0.0695403
0.0709403
0.0723962
0.0738976
0.0754329
0.0769896
0.0785535
0.0801096
0.0816421
0.0831349
0.0845717
0.0859362
0.0872132
0.0883882
0.0894483
0.0903829
0.0911829
0.0918419
0.0923564
0.0927256
0.0929511
0.0930372
0.0929903
0.0928192
0.0925339
0.0921462
0.0916687
0.0911149
0.0904984
0.089833
0.0891325
0.0884101
0.0876785
0.0869496
0.0862348
0.0855443
0.0848875
0.0842729
0.083708
0.0832
0.0827541
0.0823753
0.0820676
0.0818341
0.0816772
0.0815983
0.0586185
0.0587237
0.0589339
0.0592489
0.0596683
0.0601917
0.0608184
0.0615472
0.0623768
0.063305
0.0643293
0.0654469
0.0666528
0.0679414
0.0693066
0.070741
0.0722355
0.0737796
0.0753619
0.0769699
0.0785881
0.0802007
0.0817909
0.0833416
0.084835
0.0862537
0.0875809
0.0888007
0.0898992
0.0908645
0.0916868
0.092359
0.0928775
0.0932416
0.0934534
0.0935176
0.0934417
0.0932353
0.0929098
0.0924779
0.0919535
0.091351
0.0906853
0.089971
0.0892225
0.0884539
0.0876782
0.0869081
0.0861549
0.0854291
0.0847403
0.084097
0.0835071
0.0829772
0.0825128
0.0821187
0.0817989
0.0815564
0.0813934
0.0813115
0.0581193
0.0582253
0.0584371
0.0587549
0.0591782
0.0597071
0.0603408
0.061079
0.0619206
0.0628638
0.0639065
0.0650466
0.06628
0.0676011
0.0690039
0.0704814
0.0720246
0.0736229
0.0752653
0.0769389
0.078627
0.0803124
0.0819774
0.0836032
0.0851705
0.0866599
0.0880527
0.0893312
0.0904799
0.0914854
0.0923368
0.0930262
0.0935497
0.0939069
0.0941004
0.0941358
0.0940218
0.0937692
0.093391
0.0929015
0.0923161
0.0916506
0.0909213
0.0901438
0.0893338
0.0885059
0.0876741
0.0868513
0.0860493
0.0852788
0.0845494
0.0838699
0.0832485
0.0826911
0.0822035
0.0817902
0.0814552
0.0812013
0.0810308
0.0809451
0.0575155
0.0576223
0.0578359
0.0581566
0.0585842
0.0591189
0.0597606
0.0605092
0.0613642
0.0623246
0.0633886
0.0645546
0.0658203
0.06718
0.0686277
0.0701569
0.0717589
0.0734234
0.0751396
0.0768937
0.078668
0.0804439
0.082202
0.0839219
0.0855819
0.0871602
0.0886357
0.0899883
0.0912002
0.0922563
0.093144
0.0938547
0.094384
0.0947318
0.0949014
0.0948997
0.0947369
0.0944256
0.0939809
0.0934189
0.092757
0.0920129
0.0912044
0.0903488
0.0894629
0.0885622
0.0876616
0.0867745
0.0859131
0.0850883
0.0843099
0.083587
0.0829275
0.0823372
0.0818216
0.0813854
0.0810322
0.0807647
0.0805853
0.0804951
0.0568046
0.0569122
0.0571276
0.0574511
0.0578829
0.0584236
0.0590736
0.0598332
0.0607027
0.0616818
0.0627697
0.0639649
0.0652667
0.0666705
0.0681705
0.0697602
0.071431
0.0731744
0.0749786
0.0768294
0.0787076
0.0805933
0.0824652
0.0843004
0.0860745
0.0877626
0.0893403
0.0907846
0.0920746
0.0931931
0.0941254
0.0948615
0.0953971
0.0957322
0.095871
0.0958223
0.0955982
0.0952137
0.0946863
0.0940348
0.093279
0.0924388
0.091534
0.0905838
0.0896063
0.0886184
0.0876356
0.086672
0.0857402
0.0848512
0.0840152
0.0832418
0.0825377
0.081909
0.0813611
0.0808982
0.0805239
0.0802408
0.0800509
0.0799556
0.0559851
0.0560934
0.0563102
0.0566362
0.0570719
0.0576183
0.0582764
0.059047
0.0599313
0.06093
0.0620432
0.0632703
0.064611
0.0660641
0.0676229
0.0692815
0.0710317
0.0728663
0.0747733
0.0767379
0.0787397
0.0807567
0.0827654
0.08474
0.0866526
0.0884745
0.0901771
0.0917335
0.0931191
0.0943136
0.0952999
0.0960664
0.0966084
0.0969264
0.0970263
0.0969186
0.0966184
0.0961436
0.095515
0.0947545
0.093885
0.0929291
0.0919092
0.0908464
0.0897605
0.0886698
0.0875907
0.0865379
0.0855242
0.0845611
0.0836593
0.0828277
0.0820727
0.0814004
0.0808156
0.0803225
0.0799244
0.0796236
0.0794221
0.079321
0.0550564
0.0551652
0.0553829
0.0557107
0.0561494
0.0567005
0.0573657
0.0581466
0.0590452
0.0600633
0.0612022
0.0624627
0.0638451
0.065351
0.0669742
0.0687088
0.0705487
0.0724873
0.0745124
0.0766093
0.0787557
0.0809277
0.0830992
0.0852408
0.0873203
0.0893039
0.0911581
0.0928506
0.0943523
0.0956389
0.09669
0.0974923
0.0980404
0.0983359
0.0983864
0.0982054
0.0978114
0.0972264
0.096475
0.0955831
0.0945773
0.0934839
0.0923278
0.0911328
0.0899204
0.0887103
0.0875202
0.0863649
0.0852578
0.0842106
0.0832348
0.0823377
0.0815257
0.0808045
0.0801787
0.0796522
0.0792277
0.0789074
0.0786931
0.0785855
0.0540182
0.054127
0.054345
0.0546734
0.0551137
0.0556679
0.0563384
0.0571279
0.0580392
0.0590754
0.0602393
0.0615332
0.0629587
0.064519
0.0662111
0.0680284
0.0699679
0.0720232
0.0741825
0.0764307
0.0787449
0.0810986
0.0834624
0.0858028
0.0880821
0.0902606
0.0922979
0.0941553
0.0957975
0.097195
0.0983236
0.0991675
0.0997209
0.0999866
0.0999747
0.0997027
0.0991936
0.0984742
0.0975744
0.0965252
0.0953575
0.0941017
0.0927861
0.0914372
0.0900788
0.0887319
0.0874151
0.0861438
0.0849318
0.0837911
0.0827328
0.081763
0.0808881
0.0801134
0.0794429
0.0788799
0.0784268
0.0780854
0.0778572
0.0777427
0.0528704
0.0529786
0.0531958
0.0535234
0.0539633
0.0545182
0.0551914
0.0559866
0.0569078
0.0579596
0.0591461
0.0604719
0.06194
0.0635549
0.0653192
0.0672255
0.0692732
0.0714571
0.0737664
0.0761862
0.0786936
0.081259
0.083849
0.0864251
0.0889433
0.0913559
0.0936144
0.0956712
0.0974832
0.0990145
0.100235
0.101127
0.101684
0.10191
0.101819
0.101434
0.100783
0.0999006
0.0988221
0.0975849
0.0962256
0.0947792
0.0932781
0.0917517
0.0902261
0.0887238
0.0872639
0.0858627
0.0845347
0.0832914
0.0821423
0.0810934
0.0801504
0.0793181
0.0785995
0.0779975
0.0775139
0.0771501
0.076907
0.0767852
0.0516132
0.0517203
0.0519353
0.05226
0.052697
0.0532494
0.0539216
0.0547185
0.0556454
0.0567085
0.0579138
0.0592679
0.0607764
0.0624453
0.0642814
0.0662809
0.0684441
0.0707678
0.0732429
0.075855
0.0785834
0.0813943
0.0842497
0.087105
0.0899085
0.0926028
0.0951285
0.0974271
0.0994448
0.101137
0.102468
0.103414
0.10397
0.104143
0.103952
0.103426
0.102601
0.10152
0.100227
0.0987656
0.0971802
0.0955111
0.0937953
0.0920655
0.0903501
0.0886727
0.0870532
0.0855086
0.0840539
0.0826987
0.0814513
0.0803173
0.0793019
0.0784082
0.077639
0.0769961
0.0764806
0.0760933
0.0758349
0.0757054
0.0502477
0.0503528
0.0505638
0.0508832
0.0513138
0.0518597
0.0525261
0.0533193
0.054246
0.0553142
0.0565323
0.057909
0.0594531
0.0611727
0.0630775
0.0651718
0.0674557
0.0699293
0.0725857
0.0754126
0.0783913
0.0814849
0.0846504
0.0878361
0.0909809
0.0940151
0.0968648
0.0994573
0.101725
0.103612
0.105073
0.106082
0.106631
0.106734
0.106414
0.105711
0.104672
0.103349
0.101797
0.100069
0.0982178
0.0962896
0.0943266
0.0923651
0.0904355
0.0885626
0.0867672
0.0850668
0.0834744
0.0819983
0.0806462
0.0794225
0.0783308
0.0773733
0.0765516
0.0758664
0.0753181
0.0749068
0.0746327
0.0744954
0.0487755
0.0488776
0.0490827
0.0493935
0.0498136
0.0503478
0.0510024
0.051785
0.0527038
0.0537689
0.054991
0.0563819
0.0579534
0.0597172
0.0616866
0.0638725
0.0662787
0.0689091
0.071761
0.0748254
0.0780858
0.0815034
0.0850306
0.0886077
0.0921617
0.0956072
0.098852
0.101804
0.104377
0.1065
0.108117
0.109195
0.109729
0.109736
0.109251
0.108327
0.107022
0.105404
0.10354
0.101496
0.0993318
0.0971029
0.0948567
0.0926327
0.0904629
0.0883736
0.0863868
0.0845185
0.0827783
0.0811741
0.0797123
0.0783951
0.0772248
0.0762019
0.0753267
0.0745988
0.0740175
0.0735822
0.0732924
0.0731474
0.0471995
0.0472972
0.0474939
0.0477925
0.0481972
0.0487136
0.049349
0.0501122
0.0510136
0.0520648
0.0532795
0.0546725
0.0562596
0.0580569
0.0600818
0.0623523
0.064878
0.0676682
0.0707267
0.0740495
0.077624
0.0814118
0.0853605
0.0894018
0.0934483
0.0973943
0.101123
0.104518
0.107467
0.109879
0.111682
0.112837
0.11334
0.113217
0.112519
0.111314
0.10968
0.107702
0.105462
0.103041
0.100511
0.0979342
0.0953649
0.0928452
0.0904088
0.0880832
0.0858902
0.0838418
0.0819454
0.0802079
0.0786329
0.0772203
0.0759704
0.074882
0.0739536
0.0731834
0.0725697
0.0721109
0.0718058
0.0716532
0.0455235
0.0456156
0.0458011
0.0460832
0.0464668
0.0469582
0.0475655
0.048299
0.0491709
0.050195
0.0513877
0.0527671
0.0543535
0.056168
0.0582336
0.0605759
0.0632124
0.0661597
0.069431
0.0730298
0.0769498
0.081158
0.0855976
0.0901905
0.0948321
0.0993909
0.103719
0.107662
0.111077
0.113844
0.11587
0.117108
0.117557
0.117259
0.116283
0.114721
0.112677
0.110257
0.107563
0.104695
0.101735
0.0987588
0.095823
0.0929731
0.0902446
0.0876644
0.0852508
0.0830119
0.0809532
0.0790795
0.0773899
0.0758819
0.0745533
0.0734008
0.0724209
0.0716101
0.0709655
0.0704844
0.0701648
0.0700052
0.0437533
0.0438382
0.0440092
0.0442701
0.044626
0.045084
0.0456531
0.0463449
0.0471731
0.048154
0.0493063
0.0506522
0.0522164
0.0540259
0.0561103
0.0585041
0.0612342
0.0643279
0.0678104
0.0716965
0.0759895
0.0806713
0.085681
0.0909307
0.0962945
0.101609
0.106683
0.111315
0.115314
0.11852
0.120815
0.122139
0.1225
0.12196
0.120618
0.118601
0.116043
0.113079
0.109838
0.106437
0.102978
0.0995424
0.0961931
0.0929777
0.0899329
0.0870821
0.0844361
0.0820002
0.0797768
0.0777664
0.0759635
0.0743626
0.0729586
0.0717453
0.0707172
0.0698688
0.0691957
0.0686944
0.0683618
0.0681957
0.041896
0.0419719
0.0421251
0.0423594
0.0426804
0.0430957
0.0436152
0.0442513
0.0450194
0.0459378
0.0470281
0.0483158
0.0498306
0.0516057
0.0536783
0.0560935
0.0588898
0.0621072
0.0657881
0.0699639
0.0746542
0.0798598
0.0855257
0.0915566
0.0978036
0.104058
0.11007
0.115573
0.120311
0.124068
0.126685
0.128092
0.128311
0.127436
0.12561
0.123008
0.119806
0.116174
0.11227
0.108238
0.104197
0.100238
0.0964273
0.0928133
0.0894312
0.0862949
0.083409
0.0807741
0.0783878
0.0762441
0.0743327
0.0726446
0.071171
0.0699025
0.0688312
0.0679497
0.067252
0.0667331
0.0663894
0.0662179
0.0399604
0.0400255
0.0401571
0.0403592
0.0406375
0.0410001
0.0414572
0.0420222
0.0427116
0.0435455
0.044548
0.045748
0.0471798
0.0488833
0.0509037
0.0532977
0.0561185
0.0594221
0.0632721
0.067724
0.0728224
0.0785938
0.0850067
0.0919667
0.0992952
0.10673
0.113936
0.120557
0.126243
0.130698
0.133708
0.135186
0.13518
0.133836
0.131363
0.128004
0.12399
0.119533
0.114827
0.110047
0.105333
0.100783
0.0964652
0.0924246
0.0886867
0.0852553
0.0821278
0.0792975
0.0767554
0.0744866
0.0724759
0.0707098
0.0691753
0.0678597
0.0667524
0.0658439
0.0651265
0.0645939
0.0642415
0.0640659
0.037957
0.0380095
0.0381157
0.0382797
0.0385071
0.0388062
0.0391875
0.0396646
0.0402548
0.0409795
0.0418649
0.0429426
0.0442512
0.0458372
0.0477536
0.0500689
0.052855
0.0561868
0.0601533
0.0648422
0.070334
0.0766946
0.0839461
0.0920089
0.100697
0.109622
0.118359
0.126428
0.133342
0.138687
0.142168
0.143681
0.143317
0.141308
0.137963
0.133622
0.128607
0.123131
0.117452
0.111787
0.106299
0.101091
0.096226
0.0917381
0.0876342
0.0839078
0.080546
0.0775323
0.0748471
0.072467
0.0703711
0.0685403
0.066957
0.0656052
0.0644712
0.0635435
0.0628127
0.0622711
0.0619132
0.061735
0.0358985
0.0359364
0.0360134
0.0361332
0.0363015
0.036526
0.0368173
0.037189
0.0376582
0.038247
0.0389826
0.0398989
0.0410376
0.0424509
0.0441996
0.0463625
0.0490331
0.0523084
0.0563065
0.0611572
0.066992
0.0739382
0.0820924
0.0914373
0.101771
0.112614
0.123357
0.133353
0.14191
0.148432
0.152502
0.153995
0.153079
0.150125
0.145597
0.139963
0.133663
0.126918
0.120054
0.113353
0.106989
0.101059
0.0956159
0.0906673
0.0861998
0.0821909
0.0786127
0.0754367
0.0726292
0.0701584
0.0679968
0.066119
0.0645028
0.0631285
0.0619795
0.0610424
0.0603057
0.0597607
0.059401
0.0592221
0.0337991
0.0338206
0.0338647
0.0339346
0.0340355
0.0341747
0.034362
0.0346102
0.0349359
0.0353606
0.0359115
0.0366233
0.0375397
0.0387163
0.0402212
0.0421418
0.0445911
0.0476919
0.0515952
0.0564811
0.0625486
0.0700137
0.0790956
0.0898877
0.10248
0.115732
0.129075
0.141609
0.152335
0.16038
0.165144
0.166475
0.164679
0.160357
0.154223
0.146902
0.139154
0.130791
0.122492
0.114586
0.10725
0.100554
0.0945152
0.0891107
0.0842997
0.080037
0.076275
0.0729678
0.0700682
0.0675351
0.0653332
0.063431
0.0618014
0.0604213
0.0592714
0.058336
0.0576025
0.0570607
0.0567035
0.0565259
0.0316753
0.0316788
0.0316864
0.0317011
0.031727
0.0317707
0.0318405
0.0319478
0.0321078
0.03234
0.0326703
0.0331323
0.0337692
0.034638
0.0358108
0.0373812
0.0394761
0.0422462
0.0458779
0.0506056
0.0567058
0.0645143
0.0744165
0.0867777
0.0974965
0.112992
0.12915
0.144831
0.158716
0.169522
0.176283
0.17861
0.176849
0.171809
0.164509
0.15586
0.14501
0.134588
0.124549
0.115258
0.106873
0.0993943
0.0927769
0.0869512
0.0818416
0.0773741
0.0734771
0.0700833
0.0671323
0.0645734
0.0623631
0.060464
0.0588443
0.057478
0.0563433
0.0554227
0.0547023
0.054171
0.0538211
0.0536474
0.0295452
0.0295292
0.0294975
0.0294523
0.0293967
0.0293357
0.0292758
0.0292264
0.0291997
0.0292125
0.0292871
0.0294537
0.0297522
0.0302372
0.0309804
0.0320773
0.0336598
0.0359008
0.0390234
0.0433157
0.0491252
0.0569018
0.0672923
0.0784183
0.0944947
0.113424
0.134225
0.15487
0.173352
0.187613
0.19607
0.198179
0.194658
0.186946
0.176697
0.1653
0.153463
0.138095
0.125865
0.115055
0.105601
0.0973701
0.0902344
0.0840615
0.0787297
0.0741318
0.0701659
0.0667443
0.0637939
0.061254
0.0590734
0.0572094
0.0556266
0.0542962
0.0531948
0.0523033
0.051607
0.0510944
0.050757
0.0505897
0.0274284
0.0273918
0.0273186
0.0272099
0.0270676
0.0268947
0.0266953
0.0264757
0.0262444
0.0260138
0.0258007
0.0256291
0.0255323
0.0255571
0.025769
0.0262583
0.027153
0.0286305
0.030942
0.0344258
0.0395029
0.0466766
0.0569911
0.0701602
0.0881305
0.108193
0.134524
0.161147
0.185765
0.205209
0.2168
0.219474
0.214337
0.203662
0.190112
0.175384
0.158817
0.140626
0.125854
0.113551
0.103105
0.0942342
0.0867048
0.0803085
0.0748709
0.070243
0.0662941
0.062919
0.0600323
0.057564
0.0554569
0.0536642
0.0521481
0.050878
0.0498293
0.0489822
0.0483217
0.047836
0.0475168
0.0473586
0.0253457
0.025288
0.0251719
0.0249975
0.0247652
0.0244755
0.0241298
0.0237304
0.023281
0.0227881
0.0222611
0.0217151
0.0211723
0.0206667
0.020249
0.0199944
0.0200156
0.0204752
0.0216209
0.0238265
0.0276133
0.0335142
0.0428756
0.057658
0.0775689
0.101067
0.134987
0.171371
0.206423
0.234315
0.249992
0.251779
0.24213
0.225394
0.20591
0.185576
0.163407
0.140467
0.123674
0.110183
0.0989949
0.0897165
0.0820017
0.0755663
0.0701801
0.0656514
0.0618268
0.0585871
0.0558366
0.0534991
0.0515138
0.0498317
0.0484141
0.0472297
0.0462539
0.0454672
0.0448546
0.0444045
0.044109
0.0439627
0.0233189
0.0232399
0.0230805
0.0228399
0.0225163
0.0221081
0.021613
0.021029
0.0203541
0.0195875
0.0187294
0.017783
0.0167559
0.0156632
0.0145324
0.0134103
0.0123777
0.011561
0.011162
0.011533
0.0132873
0.0169737
0.0242098
0.0395806
0.0604744
0.0885106
0.131592
0.18182
0.233182
0.274747
0.296248
0.29485
0.276241
0.249067
0.220471
0.191743
0.1647
0.136791
0.118564
0.10437
0.0928789
0.0835593
0.0759625
0.0697363
0.0645964
0.0603227
0.0567478
0.0537435
0.051209
0.0490662
0.0472537
0.045723
0.0444362
0.0433633
0.0424808
0.04177
0.0412172
0.0408113
0.040545
0.0404132
0.0213695
0.0212697
0.021068
0.0207623
0.0203491
0.0198238
0.0191808
0.0184132
0.0175127
0.0164703
0.0152755
0.0139178
0.0123864
0.0106727
0.00877248
0.0066905
0.00445425
0.00212733
-0.000178285
-0.00223312
-0.00343855
-0.00335559
-0.000138122
0.014357
0.0334319
0.0654201
0.118681
0.189026
0.267865
0.334019
0.364348
0.353883
0.317385
0.272733
0.231299
0.192464
0.160747
0.128502
0.109799
0.095612
0.0844376
0.0755718
0.0684835
0.0627628
0.058096
0.0542538
0.0510659
0.0484036
0.0461684
0.0442853
0.0426965
0.0413572
0.040233
0.0392964
0.0385265
0.0379067
0.0374248
0.0370711
0.0368391
0.0367244
0.0195189
0.0193993
0.0191574
0.0187898
0.0182912
0.0176544
0.0168698
0.015926
0.0148082
0.0134987
0.0119761
0.0102146
0.00818344
0.00584615
0.00316097
7.95458e-05
-0.00344574
-0.00744809
-0.0119506
-0.0169543
-0.0220695
-0.0272793
-0.0307538
-0.0199745
-0.00805802
0.0240802
0.0851085
0.182649
0.310585
0.426663
0.47137
0.435891
0.363177
0.290949
0.233279
0.183919
0.149225
0.114404
0.0967225
0.0835459
0.0734885
0.0656792
0.0595435
0.0546566
0.0507083
0.047483
0.0448219
0.0426074
0.0407521
0.0391907
0.0378735
0.036763
0.03583
0.0350523
0.0344124
0.033897
0.033496
0.0332015
0.0330083
0.0329129
0.0177875
0.0176497
0.0173709
0.0169466
0.0163696
0.0156303
0.0147157
0.0136097
0.0122915
0.0107356
0.00890945
0.00677292
0.00427485
0.00135063
-0.00208137
-0.00612795
-0.0109257
-0.0166343
-0.0234565
-0.0317137
-0.0414138
-0.0534071
-0.066443
-0.0638746
-0.0678477
-0.0458487
0.00980722
0.133276
0.349591
0.583732
0.652778
0.544153
0.399526
0.289797
0.217297
0.161644
0.127792
0.0935637
0.0789413
0.0680527
0.0600536
0.0539555
0.0492357
0.0455148
0.0425273
0.0400961
0.0380916
0.0364211
0.0350175
0.0338318
0.0328275
0.0319771
0.0312599
0.0306597
0.0301644
0.0297643
0.0294523
0.0292229
0.0290723
0.0289979
0.0161937
0.0160401
0.0157289
0.0152548
0.0146091
0.01378
0.0127516
0.0115038
0.0100109
0.0082402
0.00615043
0.00368878
0.000786856
-0.00264489
-0.00672436
-0.0116118
-0.0175307
-0.0247765
-0.0337499
-0.0451399
-0.0594557
-0.0787923
-0.1031
-0.114084
-0.145165
-0.152446
-0.140681
-0.0364336
0.303244
0.874427
0.983784
0.644564
0.380604
0.244281
0.172981
0.121784
0.0949206
0.0658803
0.0566153
0.0493804
0.0444132
0.0406623
0.037789
0.0355337
0.0337174
0.0322291
0.0309869
0.0299366
0.0290405
0.0282719
0.0276114
0.0270446
0.026561
0.0261521
0.0258118
0.025535
0.0253181
0.0251579
0.0250526
0.0250006
0.0147541
0.0145873
0.0142493
0.013734
0.0130315
0.0121284
0.0110064
0.00964272
0.00800765
0.00606396
0.00376383
0.00104598
-0.00216964
-0.00598956
-0.0105566
-0.016068
-0.0228103
-0.031187
-0.0417624
-0.0555481
-0.0734867
-0.0990173
-0.133317
-0.161297
-0.22666
-0.286939
-0.38674
-0.486331
-0.326569
1.18496
1.52774
0.478276
0.206393
0.129248
0.0946234
0.0646074
0.0517875
0.0325883
0.0306969
0.0282869
0.027174
0.0262722
0.0255755
0.0250066
0.0245096
0.0240631
0.023651
0.0232681
0.0229128
0.0225852
0.022286
0.022016
0.0217759
0.0215661
0.0213868
0.0212378
0.0211194
0.0210309
0.0209724
0.0209436
0.0134823
0.0133054
0.012947
0.0124003
0.0116547
0.0106956
0.00950354
0.00805371
0.00631455
0.00424639
0.00179867
-0.00109317
-0.00451301
-0.00857252
-0.0134217
-0.0192669
-0.0264117
-0.0353
-0.046558
-0.0613529
-0.0807309
-0.10911
-0.147854
-0.190895
-0.283492
-0.401272
-0.647334
-1.17511
-2.39956
-0.72186
-0.137463
-0.0325479
-0.0028879
-0.00262899
0.00243896
-0.00374863
0.00297917
0.00605682
0.00926283
0.0114561
0.0130945
0.014309
0.0151868
0.0158142
0.0162499
0.0165446
0.016736
0.0168528
0.0169171
0.0169454
0.01695
0.0169402
0.0169228
0.0169025
0.0168832
0.016867
0.0168558
0.0168504
0.0123888
0.0122053
0.0118333
0.0112659
0.010492
0.0094966
0.00825961
0.00675571
0.00495312
0.00281231
0.000283682
-0.00269496
-0.00620277
-0.0103428
-0.0152513
-0.0211105
-0.0281833
-0.0368584
-0.0476713
-0.0616866
-0.0795096
-0.105729
-0.139946
-0.189039
-0.284136
-0.425218
-0.722056
-1.36779
-2.85062
-2.7467
-0.860003
-0.295332
-0.152036
-0.0909693
-0.0695301
-0.0470831
-0.0395802
-0.0241239
-0.0156395
-0.00815726
-0.00296776
0.00093851
0.00387316
0.00606765
0.00771983
0.00896379
0.0099045
0.0106178
0.0111599
0.0115732
0.0118887
0.01213
0.0123142
0.0124543
0.0125597
0.0126374
0.012692
0.0127271
0.0127449
0.0114807
0.011294
0.0109157
0.0103387
0.00955196
0.00854035
0.00728411
0.0057586
0.0039332
0.00177067
-0.000774389
-0.00375706
-0.00724422
-0.0113189
-0.0160853
-0.0216711
-0.0282475
-0.0360548
-0.0453909
-0.0569697
-0.0704271
-0.0896682
-0.110625
-0.15328
-0.222664
-0.337315
-0.567532
-0.988853
-1.75141
-2.49743
-1.25675
-0.463459
-0.304114
-0.209701
-0.154953
-0.1276
-0.0909538
-0.071249
-0.0480826
-0.0350518
-0.0238772
-0.016153
-0.0102863
-0.00586664
-0.00253258
1.27825e-05
0.00196717
0.00348074
0.00466106
0.00558773
0.00631949
0.00689972
0.00736062
0.00772641
0.00801487
0.00823912
0.00840899
0.00853108
0.0086105
0.0086503
0.0107614
0.0105752
0.0101978
0.00962238
0.00883804
0.00783017
0.00657978
0.00506371
0.0032535
0.00111565
-0.00138898
-0.00430557
-0.00768493
-0.0115835
-0.0160631
-0.0211821
-0.0269943
-0.0335407
-0.0408025
-0.0490303
-0.0566851
-0.0665834
-0.0701187
-0.0963217
-0.123997
-0.179568
-0.307116
-0.525152
-0.885763
-1.2324
-0.965733
-0.25131
-0.29594
-0.247431
-0.19968
-0.171962
-0.12499
-0.0956487
-0.0667341
-0.0506802
-0.0368594
-0.0273685
-0.020058
-0.0145397
-0.0103463
-0.00710973
-0.00459291
-0.0026146
-0.00104684
0.000205622
0.00121235
0.0020248
0.00268149
0.00321099
0.00363466
0.00396811
0.00422327
0.00440812
0.0045288
0.00458919
0.0102308
0.0100486
0.00967918
0.00911612
0.00834898
0.00736389
0.00614306
0.00466495
0.00290379
0.000830371
-0.00158809
-0.00438659
-0.00760007
-0.0112597
-0.015387
-0.0199762
-0.0249762
-0.0302423
-0.0354745
-0.040535
-0.0429517
-0.0446254
-0.0330966
-0.0390454
-0.0243752
-0.00845669
-0.0230751
-0.101856
-0.459201
-0.956145
-1.01926
-0.72561
-0.416165
-0.288063
-0.227459
-0.198604
-0.146084
-0.110527
-0.0785862
-0.0614933
-0.0463871
-0.0360982
-0.0280086
-0.0218852
-0.0171832
-0.0135062
-0.010609
-0.00829841
-0.00643978
-0.00493267
-0.00370334
-0.00269752
-0.00187402
-0.00120233
-0.000659464
-0.0002286
0.000103404
0.000345133
0.000503463
0.000582594
0.00988493
0.00971002
0.00935551
0.0088152
0.00807927
0.00713477
0.00596513
0.00455055
0.00286783
0.000891259
-0.00140664
-0.00405325
-0.00707188
-0.0104763
-0.014262
-0.018382
-0.022728
-0.0270427
-0.0308814
-0.0339335
-0.0333412
-0.0306749
-0.0117724
-0.000896218
0.0426885
0.115007
0.219078
0.20006
-0.333078
-1.01966
-1.24324
-0.882903
-0.469611
-0.300725
-0.232969
-0.203894
-0.1522
-0.11482
-0.0830933
-0.0670796
-0.0521699
-0.0421212
-0.033982
-0.0277901
-0.0229568
-0.0191088
-0.0160262
-0.0135247
-0.0114785
-0.00979257
-0.00839686
-0.00723936
-0.00628029
-0.00548963
-0.00484506
-0.00432954
-0.00393011
-0.00363789
-0.00344607
-0.00335013
0.0097166
0.00955221
0.00921899
0.00871116
0.00801955
0.00713209
0.00603338
0.00470509
0.00312606
0.00127291
-0.000878852
-0.00335304
-0.00616821
-0.00933228
-0.012835
-0.0166225
-0.0205899
-0.0244658
-0.027843
-0.0304779
-0.0297497
-0.027587
-0.0110526
0.00610551
0.0496139
0.127752
0.187
0.064506
-0.383831
-0.760373
-0.764183
-0.551045
-0.373956
-0.257999
-0.209568
-0.18689
-0.143153
-0.108917
-0.0807894
-0.0677057
-0.0543931
-0.0455454
-0.0380583
-0.0323061
-0.0276956
-0.0239304
-0.0208466
-0.018288
-0.0161525
-0.0143604
-0.0128526
-0.0115839
-0.0105197
-0.00963329
-0.00890422
-0.00831703
-0.00785961
-0.0075235
-0.00730234
-0.00719168
0.0097153
0.00956442
0.00925851
0.00879222
0.00815708
0.00734184
0.00633215
0.00511095
0.0036582
0.00195161
-3.26095e-05
-0.0023191
-0.00492835
-0.00787443
-0.0111598
-0.0147541
-0.0186116
-0.022527
-0.0262858
-0.029869
-0.0313325
-0.0333505
-0.02651
-0.0161129
-0.00315366
0.0154427
-0.0832419
-0.220149
-0.385582
-0.458029
-0.39648
-0.312813
-0.237288
-0.182093
-0.162409
-0.151664
-0.121305
-0.0945825
-0.0730461
-0.0642648
-0.0537009
-0.0468074
-0.0405469
-0.035641
-0.0315375
-0.028061
-0.0251265
-0.0226215
-0.0204792
-0.0186427
-0.0170693
-0.015725
-0.0145829
-0.0136214
-0.0128238
-0.012177
-0.0116704
-0.0112968
-0.0110502
-0.0109268
0.00986745
0.00973287
0.0094598
0.00904343
0.00847594
0.00774708
0.00684345
0.00574883
0.00444397
0.0029067
0.00111209
-0.000968079
-0.00336136
-0.00609517
-0.00919812
-0.0126824
-0.0165962
-0.0208251
-0.0254291
-0.0306413
-0.0353445
-0.0427931
-0.0477155
-0.0505851
-0.073717
-0.119752
-0.278855
-0.452558
-0.451504
-0.322338
-0.218174
-0.17292
-0.126644
-0.102535
-0.103246
-0.104419
-0.0902194
-0.0746599
-0.0619474
-0.0581416
-0.0510843
-0.0466064
-0.041946
-0.0381294
-0.034708
-0.0316517
-0.028966
-0.0265892
-0.0244978
-0.0226618
-0.0210578
-0.0196652
-0.0184668
-0.0174474
-0.0165947
-0.0158986
-0.0153507
-0.014945
-0.0146768
-0.0145424
0.0101567
0.0100409
0.00980572
0.00944693
0.00895755
0.00832826
0.00754673
0.00659769
0.00546259
0.00411906
0.00254061
0.000694567
-0.00145615
-0.00395423
-0.00686164
-0.0102305
-0.014212
-0.0187627
-0.0242267
-0.0310033
-0.0387354
-0.0506077
-0.0649725
-0.079213
-0.123337
-0.199036
-0.335059
-0.494105
-0.473644
-0.243099
-0.0959513
-0.0580619
-0.04082
-0.0325106
-0.0430431
-0.051829
-0.0549387
-0.0526276
-0.0497892
-0.0510182
-0.0477606
-0.0457893
-0.0428457
-0.0401766
-0.0374853
-0.0348909
-0.0324918
-0.030275
-0.0282624
-0.0264508
-0.0248368
-0.0234136
-0.0221736
-0.0211086
-0.0202109
-0.0194737
-0.0188908
-0.0184578
-0.0181708
-0.0180269
0.0105643
0.0104694
0.0102766
0.00998224
0.00958034
0.00906281
0.00841868
0.00763393
0.00669125
0.00556864
0.00423855
0.00266509
0.000801637
-0.00140719
-0.00405121
-0.00720785
-0.011125
-0.0157852
-0.0217847
-0.0295502
-0.0393678
-0.0536248
-0.0736922
-0.0938845
-0.14253
-0.218121
-0.299417
-0.3914
-0.385109
-0.142707
0.026202
0.0385954
0.0371311
0.0298533
0.0136167
0.000530766
-0.0205165
-0.0323921
-0.0390085
-0.0446646
-0.0449849
-0.0452364
-0.0438485
-0.04219
-0.0401528
-0.0379756
-0.0358377
-0.0337685
-0.0318315
-0.0300467
-0.0284285
-0.0269819
-0.0257078
-0.0246046
-0.0236686
-0.022896
-0.0222828
-0.021826
-0.0215227
-0.0213706
0.0110688
0.0109969
0.0108503
0.0106263
0.0103201
0.00992523
0.00943262
0.00883013
0.00810255
0.00722963
0.00618459
0.00492936
0.0034129
0.00157504
-0.00069349
-0.00347387
-0.00709889
-0.0115233
-0.0175508
-0.0254969
-0.0362207
-0.0508245
-0.0733678
-0.0948427
-0.139655
-0.201768
-0.239531
-0.263388
-0.203128
-0.0519396
0.08128
0.0930907
0.104411
0.101415
0.0691448
0.046417
0.00754608
-0.0180284
-0.0321202
-0.0408255
-0.0439098
-0.0457368
-0.0454906
-0.0445335
-0.0429608
-0.041076
-0.0391209
-0.0371494
-0.0352583
-0.0334839
-0.0318537
-0.0303815
-0.0290745
-0.0279357
-0.0269647
-0.0261603
-0.0255199
-0.0250419
-0.0247242
-0.0245648
0.0116473
0.0115997
0.0115023
0.0113535
0.0111498
0.0108868
0.0105579
0.010154
0.00966296
0.00906768
0.00834397
0.0074573
0.00635769
0.0049892
0.00323203
0.00102568
-0.00203252
-0.00581698
-0.0112954
-0.0185589
-0.0290166
-0.0423368
-0.0648778
-0.085362
-0.124576
-0.174768
-0.171596
-0.159855
-0.153804
-0.080072
0.0445596
0.102545
0.129756
0.142682
0.107874
0.0755308
0.0224703
-0.0133995
-0.031329
-0.0409512
-0.0454327
-0.0478724
-0.0481563
-0.0474715
-0.0460914
-0.0443151
-0.0424247
-0.0404749
-0.0385814
-0.0367875
-0.0351278
-0.0336206
-0.0322767
-0.0311014
-0.0300964
-0.0292617
-0.0285962
-0.0280987
-0.0277677
-0.0276017
0.0122751
0.0122527
0.0122066
0.0121362
0.01204
0.0119157
0.0117602
0.0115682
0.0113312
0.0110375
0.0106691
0.0102003
0.00958762
0.00878862
0.00768114
0.00625115
0.00404525
0.00131309
-0.00303754
-0.00878614
-0.0178522
-0.0285869
-0.0489062
-0.0679965
-0.101862
-0.142649
-0.136314
-0.160116
-0.139065
-0.0541611
0.022462
0.052516
0.0856305
0.10449
0.0973717
0.0703899
0.0171182
-0.0209962
-0.0378545
-0.045827
-0.0499929
-0.0519141
-0.0520095
-0.0511135
-0.0496209
-0.0477499
-0.0457893
-0.0437717
-0.0418189
-0.039969
-0.0382573
-0.036702
-0.0353141
-0.0340993
-0.0330595
-0.0321952
-0.0315056
-0.0309898
-0.0306465
-0.0304743
0.0129263
0.0129297
0.0129358
0.0129454
0.0129591
0.0129776
0.0130013
0.0130289
0.0130582
0.0130844
0.013099
0.0130892
0.0130228
0.0128806
0.0125463
0.0120766
0.0109879
0.00968743
0.00700409
0.00353339
-0.00304676
-0.010076
-0.0259518
-0.0436008
-0.0720071
-0.108907
-0.0983234
-0.0627804
-0.0160516
0.0174977
0.00721589
-0.0454708
-0.0386507
-0.0182679
0.0238454
0.0223238
-0.0109955
-0.0401861
-0.0511912
-0.0551733
-0.0573809
-0.0577348
-0.0569663
-0.0554117
-0.0535201
-0.0513601
-0.049204
-0.0470334
-0.0449658
-0.0430246
-0.0412387
-0.0396219
-0.0381825
-0.0369244
-0.0358487
-0.034955
-0.034242
-0.0337088
-0.0333539
-0.0331761
0.0135749
0.0136037
0.0136616
0.0137509
0.0138743
0.0140356
0.0142389
0.0144884
0.0147891
0.015145
0.0155588
0.0160339
0.0165536
0.0171314
0.0176629
0.0182967
0.0185384
0.0189787
0.0184168
0.0178538
0.014763
0.0124258
0.00322115
-0.0123751
-0.0343321
-0.0648937
-0.0412977
-0.0140525
0.00168859
0.00704993
-0.0419643
-0.168238
-0.214477
-0.176524
-0.0874352
-0.0519402
-0.054528
-0.0665376
-0.0689345
-0.0675704