/*--------------------------------*- C++ -*----------------------------------*\
  =========                 |
  \\      /  F ield         | OpenFOAM: The Open Source CFD Toolbox
   \\    /   O peration     | Website:  https://openfoam.org
    \\  /    A nd           | Version:  12
     \\/     M anipulation  |
\*---------------------------------------------------------------------------*/
FoamFile
{
    format      ascii;
    class       surfaceScalarField;
    location    "200";
    object      phi;
}
// * * * * * * * * * * * * * * * * * * * * * * * * * * * * * * * * * * * * * //

dimensions      [0 3 -1 0 0 0 0];

internalField   nonuniform List<scalar> 
32440
(
-3.35941e-07
0.0399883
1.32955e-06
0.0399883
-1.0039e-06
0.0399903
6.64396e-07
0.0399883
-1.66449e-06
0.0399903
1.0008e-08
0.0399983
-3.10734e-07
0.0400103
-6.25499e-07
0.0400103
1.0681e-06
0.0400103
2.77221e-06
0.0400103
4.48959e-06
0.0400103
2.22784e-07
0.0400043
-2.65468e-08
0.0400002
-2.53954e-07
0.0400002
-4.5593e-07
0.0400002
-6.28646e-07
0.0400002
-7.68245e-07
0.0400001
-8.70892e-07
0.0400001
-9.32936e-07
0.0400001
-9.51099e-07
0.04
-9.22622e-07
0.04
-8.45557e-07
0.0399999
-7.18564e-07
0.0399999
-5.41395e-07
0.0399998
-3.14887e-07
0.0399998
-4.10423e-08
0.0399997
2.76929e-07
0.0399997
6.35075e-07
0.0399996
-5.72857e-07
0.0400012
-5.81359e-06
0.0400052
-6.91232e-06
0.0400011
-6.65849e-06
0.0399997
-6.19954e-06
0.0399995
-5.74341e-06
0.0399995
-4.29779e-06
0.0399986
-3.86988e-06
0.0399996
-3.46625e-06
0.0399996
-3.09261e-06
0.0399996
-2.75376e-06
0.0399997
-2.45353e-06
0.0399997
-2.19473e-06
0.0399997
-1.97922e-06
0.0399998
-1.80793e-06
0.0399998
-1.68095e-06
0.0399999
-1.59766e-06
0.0399999
-1.55679e-06
0.04
-1.55654e-06
0.04
-1.59445e-06
0.04
-1.66852e-06
0.0400001
-1.77569e-06
0.0400001
-1.91304e-06
0.0400001
-4.07749e-06
0.0400022
-1.02654e-05
0.0400062
-4.47454e-06
0.0400062
-7.01923e-07
0.0400082
-9.44201e-07
0.0400102
8.01991e-07
0.0399983
5.39535e-07
0.0399883
2.71422e-07
0.0399903
0.0399883
-1.29634e-06
0.0399896
-2.58874e-06
0.0399896
-3.87597e-06
0.0399916
-5.15513e-06
0.0399896
-4.42256e-06
0.0399896
-3.67471e-06
0.0399976
-2.90667e-06
0.0400096
-4.11248e-06
0.0400115
-3.28437e-06
0.0400095
-4.14889e-07
0.0400074
2.50884e-06
0.0400074
-6.5031e-06
0.0400133
-1.1446e-05
0.0400052
-1.23031e-05
0.0400011
-1.30622e-05
0.040001
-1.37082e-05
0.0400008
-1.42271e-05
0.0400007
-1.46049e-05
0.0400005
-1.48284e-05
0.0400003
-1.48855e-05
0.0400001
-1.47656e-05
0.0399999
-1.44641e-05
0.0399996
-1.39756e-05
0.0399994
-1.32998e-05
0.0399991
-1.24406e-05
0.0399989
-1.12061e-05
0.0399985
-1.00088e-05
0.0399985
-9.06609e-06
0.0399987
-8.9978e-06
0.0400011
-1.3135e-05
0.0400094
-1.29852e-05
0.0400009
-1.12971e-05
0.0399981
-9.59311e-06
0.0399978
-7.90238e-06
0.0399979
-7.45314e-06
0.0399981
-5.87175e-06
0.039998
-4.38181e-06
0.0399981
-3.00401e-06
0.0399982
-1.75553e-06
0.0399984
-6.49839e-07
0.0399986
3.03191e-07
0.0399988
1.09729e-06
0.039999
1.72952e-06
0.0399992
2.20047e-06
0.0399994
4.51179e-06
0.0399976
4.66897e-06
0.0399998
4.67887e-06
0.04
4.54948e-06
0.0400002
4.29086e-06
0.0400003
3.91349e-06
0.0400005
1.42696e-06
0.0400026
-3.15601e-06
0.0400067
-5.82448e-06
0.0400089
-4.5694e-06
0.040005
-3.37848e-06
0.040007
-2.2403e-06
0.0400091
2.85615e-06
0.0399932
-7.86713e-08
0.0399912
9.65789e-07
0.0399892
0.0399892
-2.38785e-06
0.039992
-4.76885e-06
0.039992
-5.14011e-06
0.039992
-7.49642e-06
0.039992
-1.18311e-05
0.0399939
-8.13525e-06
0.0399939
-1.0404e-05
0.0400118
-1.06216e-05
0.0400117
-1.07789e-05
0.0400096
-1.08565e-05
0.0400075
-1.08411e-05
0.0400073
-2.07005e-05
0.0400231
-2.44357e-05
0.0400089
-2.60175e-05
0.0400027
-2.74154e-05
0.0400024
-2.86089e-05
0.040002
-2.95708e-05
0.0400016
-3.0276e-05
0.0400012
-2.67006e-05
0.0399967
-3.08227e-05
0.0400042
-3.06251e-05
0.0399997
-3.0096e-05
0.0399991
-2.92276e-05
0.0399985
-2.80195e-05
0.0399979
-2.64788e-05
0.0399974
-2.46207e-05
0.0399966
-2.24682e-05
0.0399963
-2.00507e-05
0.0399963
-1.90091e-05
0.0400001
-2.18718e-05
0.0400122
-2.04302e-05
0.0399995
-1.75936e-05
0.0399952
-1.45292e-05
0.0399948
-1.14895e-05
0.0399948
-7.52517e-06
0.0399941
-4.68303e-06
0.0399951
-2.00554e-06
0.0399954
4.71239e-07
0.0399958
2.71664e-06
0.0399962
4.70719e-06
0.0399966
6.42583e-06
0.0399971
7.862e-06
0.0399976
9.01166e-06
0.039998
9.87337e-06
0.0399985
8.45428e-06
0.039999
8.76298e-06
0.0399995
8.8129e-06
0.0399999
1.06173e-05
0.0399984
1.0194e-05
0.0400008
7.56144e-06
0.0400031
4.73911e-06
0.0400054
-6.24966e-06
0.0400177
-1.39413e-06
0.040004
-6.70359e-07
0.0400042
-5.77675e-08
0.0400064
2.46274e-06
0.0400066
4.91069e-06
0.0399907
3.30392e-06
0.0399928
1.66084e-06
0.0399909
0.0399909
-3.52234e-06
0.0399955
-7.03548e-06
0.0399955
-1.05347e-05
0.0399955
-1.40119e-05
0.0399954
-1.54573e-05
0.0399954
-1.88602e-05
0.0399973
-1.62066e-05
0.0400092
-1.74843e-05
0.040013
-1.86686e-05
0.0400108
-2.17436e-05
0.0400106
-2.46748e-05
0.0400103
-3.14316e-05
0.0400299
-3.80055e-05
0.0400155
-4.23485e-05
0.040007
-4.44308e-05
0.0400044
-4.4206e-05
0.0400018
-4.36437e-05
0.0400011
-3.471e-05
0.0399923
-2.93671e-05
0.0399914
-4.15557e-05
0.0400164
-4.7288e-05
0.0400054
-4.65303e-05
0.0399983
-4.52714e-05
0.0399973
-4.35077e-05
0.0399962
-4.12552e-05
0.0399951
-3.85334e-05
0.0399939
-3.53765e-05
0.0399932
-3.20322e-05
0.0399929
-2.95512e-05
0.0399976
-3.10894e-05
0.0400138
-2.82631e-05
0.0399967
-2.40069e-05
0.039991
-1.93107e-05
0.0399901
-1.48534e-05
0.0399904
-1.17095e-05
0.039991
-7.54825e-06
0.039991
-3.63125e-06
0.0399915
-1.13509e-08
0.0399922
5.26752e-06
0.0399909
8.17237e-06
0.0399937
1.0679e-05
0.0399946
1.27739e-05
0.0399955
1.44484e-05
0.0399964
1.57069e-05
0.0399973
1.65585e-05
0.0399982
1.70151e-05
0.039999
1.70958e-05
0.0399999
1.4826e-05
0.0400006
1.62276e-05
0.0399994
1.53288e-05
0.040004
4.15984e-06
0.0400166
2.74888e-06
0.0400191
1.11661e-06
0.0400056
1.29699e-06
0.0400041
1.31915e-06
0.0400064
7.21143e-06
0.0400007
4.99895e-06
0.0399929
4.70909e-06
0.0399931
2.36739e-06
0.0399932
0.0399933
-4.66174e-06
0.0400002
-9.31277e-06
0.0400002
-1.3946e-05
0.0400001
-1.855e-05
0.04
-2.31154e-05
0.0399999
-2.56243e-05
0.0399998
-2.20607e-05
0.0400056
-2.64053e-05
0.0400174
-3.06338e-05
0.040015
-3.27157e-05
0.0400127
-3.4617e-05
0.0400122
-3.82923e-05
0.0400336
-4.9711e-05
0.0400269
-5.48394e-05
0.0400121
-5.76186e-05
0.0400072
-6.00012e-05
0.0400042
-5.59336e-05
0.039997
-4.3385e-05
0.0399797
-5.02635e-05
0.0399982
-6.0523e-05
0.0400266
-6.41751e-05
0.040009
-6.31708e-05
0.0399973
-6.14978e-05
0.0399956
-5.91532e-05
0.0399938
-5.61446e-05
0.0399921
-5.25049e-05
0.0399903
-4.82804e-05
0.039989
-4.35308e-05
0.0399882
-3.99394e-05
0.039994
-4.00691e-05
0.0400139
-3.57792e-05
0.0399924
-2.98196e-05
0.039985
-2.40159e-05
0.0399843
-1.78728e-05
0.0399842
-1.12889e-05
0.0399844
-5.75744e-06
0.0399855
-5.60748e-07
0.0399863
4.23074e-06
0.0399874
6.56193e-06
0.0399886
1.03872e-05
0.0399899
1.36774e-05
0.0399913
1.84151e-05
0.0399907
2.05946e-05
0.0399942
2.22218e-05
0.0399957
2.33058e-05
0.0399971
2.38709e-05
0.0399985
2.39442e-05
0.0399998
2.3552e-05
0.040001
2.0734e-05
0.0400022
1.15246e-05
0.0400132
-2.02981e-06
0.0400302
8.08332e-06
0.040009
7.91737e-06
0.0400058
5.51092e-06
0.0400065
6.89991e-06
0.040005
1.21205e-05
0.0399955
9.20741e-06
0.0399958
6.19382e-06
0.0399961
3.11384e-06
0.0399963
0.0399964
-5.7954e-06
0.040006
-9.57854e-06
0.040004
-1.53416e-05
0.0400059
-2.10712e-05
0.0400058
-2.67531e-05
0.0400056
-3.23693e-05
0.0400054
-3.38984e-05
0.0400071
-3.33167e-05
0.0400168
-3.85956e-05
0.0400203
-4.36973e-05
0.0400178
-4.65878e-05
0.0400151
-3.32167e-05
0.0400202
-5.54777e-05
0.0400492
-6.74032e-05
0.0400241
-7.28978e-05
0.0400127
-7.38983e-05
0.0400052
-6.835e-05
0.0399914
-6.61803e-05
0.0399775
-7.12895e-05
0.0400034
-7.96387e-05
0.040035
-8.12116e-05
0.0400106
-7.99514e-05
0.0399961
-7.78365e-05
0.0399935
-7.48617e-05
0.0399909
-7.10392e-05
0.0399883
-6.64148e-05
0.0399856
-6.08437e-05
0.0399834
-5.52089e-05
0.0399826
-5.00004e-05
0.0399888
-4.86235e-05
0.0400125
-4.27636e-05
0.0399865
-3.54022e-05
0.0399776
-2.75943e-05
0.0399765
-2.02747e-05
0.0399769
-1.39741e-05
0.0399781
-7.01023e-06
0.0399785
1.51284e-06
0.0399778
7.50907e-06
0.0399814
1.29077e-05
0.0399832
1.76555e-05
0.0399851
2.17193e-05
0.0399872
2.30762e-05
0.0399894
2.57269e-05
0.0399915
2.96743e-05
0.0399917
3.09452e-05
0.0399958
3.15628e-05
0.0399979
3.15647e-05
0.0399998
3.0991e-05
0.0400016
2.78867e-05
0.0400053
1.63042e-05
0.0400248
1.62887e-05
0.0400302
1.58693e-05
0.0400095
1.31098e-05
0.0400086
1.20564e-05
0.0400075
1.87568e-05
0.0399983
1.52487e-05
0.039999
1.1578e-05
0.0399995
7.78617e-06
0.0399999
3.91408e-06
0.0400002
0.0400003
-6.9233e-06
0.0400129
-1.38349e-05
0.0400109
-2.07238e-05
0.0400128
-2.75756e-05
0.0400126
-3.43743e-05
0.0400124
-4.10993e-05
0.0400121
-4.57262e-05
0.0400118
-4.42213e-05
0.0400153
-4.8561e-05
0.0400247
-5.26966e-05
0.0400219
-5.85829e-05
0.040021
-6.01683e-05
0.0400218
-6.33398e-05
0.0400524
-8.20893e-05
0.0400428
-8.63374e-05
0.040017
-8.39948e-05
0.0400028
-6.70152e-05
0.0399745
-8.52335e-05
0.0399958
-9.05962e-05
0.0400087
-9.70394e-05
0.0400414
-9.85329e-05
0.0400121
-9.70034e-05
0.0399945
-9.44205e-05
0.0399909
-9.07702e-05
0.0399872
-8.60849e-05
0.0399836
-8.01961e-05
0.0399798
-7.37815e-05
0.039977
-6.63384e-05
0.0399751
-5.97978e-05
0.0399823
-5.67849e-05
0.0400095
-4.92171e-05
0.039979
-3.99247e-05
0.0399684
-3.07887e-05
0.0399673
-2.13825e-05
0.0399675
-1.16674e-05
0.0399684
-3.18873e-06
0.03997
2.72679e-06
0.0399719
9.97071e-06
0.0399741
1.6461e-05
0.0399767
2.41353e-05
0.0399775
2.89576e-05
0.0399824
3.29077e-05
0.0399854
3.5986e-05
0.0399885
3.62098e-05
0.0399915
3.96004e-05
0.0399924
4.02062e-05
0.0399972
4.00671e-05
0.0399999
3.92372e-05
0.0400024
2.57783e-05
0.0400187
7.7633e-06
0.0400428
2.31967e-05
0.0400148
2.21698e-05
0.0400105
2.07474e-05
0.04001
2.49805e-05
0.0400033
2.09199e-05
0.0400024
1.66191e-05
0.0400033
1.21288e-05
0.040004
7.49765e-06
0.0400045
4.77411e-06
0.0400029
0.0400051
-6.04563e-06
0.040019
-1.60838e-05
0.0400209
-2.40966e-05
0.0400208
-3.00692e-05
0.0400186
-3.79876e-05
0.0400203
-4.58278e-05
0.04002
-5.35604e-05
0.0400195
-5.71583e-05
0.0400189
-5.85763e-05
0.0400261
-6.57728e-05
0.0400291
-7.26859e-05
0.0400279
-7.52752e-05
0.0400244
-5.74457e-05
0.0400345
-8.49983e-05
0.0400704
-0.000104041
0.040036
-0.000104396
0.0400032
-9.99996e-05
0.0399701
-0.000104672
0.0400004
-0.000108349
0.0400124
-0.000114921
0.040048
-0.000116338
0.0400135
-0.000114544
0.0399927
-0.000111465
0.0399878
-0.000107111
0.0399829
-0.000101481
0.039978
-9.46305e-05
0.0399729
-8.6658e-05
0.039969
-7.7686e-05
0.0399661
-6.96585e-05
0.0399742
-6.46377e-05
0.0400045
-5.52048e-05
0.0399695
-4.42097e-05
0.0399574
-3.29896e-05
0.0399561
-2.19538e-05
0.0399565
-1.02987e-05
0.0399567
-2.01706e-07
0.0399599
9.18397e-06
0.0399625
1.77318e-05
0.0399656
2.53458e-05
0.0399691
2.99586e-05
0.0399728
3.75271e-05
0.0399748
4.20413e-05
0.0399809
4.54994e-05
0.039985
4.79338e-05
0.039989
4.93843e-05
0.039991
4.98979e-05
0.0399967
4.95342e-05
0.0400003
4.43698e-05
0.0400076
3.04708e-05
0.0400326
2.9913e-05
0.0400434
3.07301e-05
0.0400139
2.90237e-05
0.0400122
3.48607e-05
0.0400041
3.23046e-05
0.0400058
2.7414e-05
0.0400073
2.22512e-05
0.0400084
1.68742e-05
0.0400094
1.13383e-05
0.0400101
5.69776e-06
0.0400085
0.0400108
-9.16941e-06
0.0400281
-1.83303e-05
0.0400301
-2.54659e-05
0.0400279
-3.65675e-05
0.0400297
-4.36101e-05
0.0400274
-5.2576e-05
0.0400289
-6.14346e-05
0.0400284
-7.01502e-05
0.0400276
-7.06683e-05
0.0400266
-7.69564e-05
0.0400354
-8.49461e-05
0.0400359
-9.25564e-05
0.040032
-9.37102e-05
0.0400357
-0.00010823
0.0400849
-0.000116127
0.0400439
-0.00011127
0.0399983
-0.000119517
0.0399783
-0.000124715
0.0400056
-0.000126749
0.0400144
-0.000133486
0.0400547
-0.000134881
0.0400149
-0.000132822
0.0399907
-0.000129244
0.0399842
-0.000124126
0.0399777
-0.000117476
0.0399713
-0.000109373
0.0399648
-9.9905e-05
0.0399595
-8.94225e-05
0.0399557
-7.91236e-05
0.039964
-7.23066e-05
0.0399977
-6.07927e-05
0.039958
-4.76954e-05
0.0399443
-3.4194e-05
0.0399426
-2.11459e-05
0.0399434
-9.79215e-06
0.0399454
2.05301e-06
0.0399481
1.30091e-05
0.0399515
2.49275e-05
0.0399537
3.37043e-05
0.0399603
4.12661e-05
0.0399653
4.55678e-05
0.0399705
5.26038e-05
0.0399739
5.6395e-05
0.0399812
5.89731e-05
0.0399865
5.83962e-05
0.0399916
6.07279e-05
0.0399944
5.80589e-05
0.040003
4.24628e-05
0.0400232
2.00687e-05
0.040055
4.28409e-05
0.0400206
4.0942e-05
0.0400158
4.647e-05
0.0400067
4.14796e-05
0.0400091
3.60503e-05
0.0400113
3.02526e-05
0.0400131
2.41541e-05
0.0400145
1.9821e-05
0.0400137
1.33117e-05
0.0400166
4.68602e-06
0.0400172
0.0400155
-1.0292e-05
0.0400384
-1.85754e-05
0.0400383
-3.08431e-05
0.0400402
-3.90722e-05
0.0400379
-5.1255e-05
0.0400396
-6.13615e-05
0.040039
-6.93614e-05
0.0400364
-7.92225e-05
0.0400374
-8.88939e-05
0.0400363
-8.83037e-05
0.0400348
-9.54103e-05
0.040043
-0.000106118
0.0400427
-0.000112324
0.0400419
-0.000109891
0.0400825
-0.000120739
0.0400548
-0.000106796
0.0399844
-0.000133754
0.0400053
-0.000141541
0.0400134
-0.000148019
0.0400209
-0.000151006
0.0400577
-0.000152413
0.0400163
-0.000152112
0.0399904
-0.000148035
0.0399802
-0.00014211
0.0399718
-0.000134379
0.0399636
-0.000124878
0.0399553
-0.000113553
0.0399482
-0.000101182
0.0399433
-8.89777e-05
0.0399517
-7.9906e-05
0.0399886
-6.58588e-05
0.039944
-5.04061e-05
0.0399288
-3.49809e-05
0.0399272
-1.95029e-05
0.0399279
-4.06209e-06
0.0399299
9.68894e-06
0.0399343
2.23364e-05
0.0399389
3.17147e-05
0.0399443
4.36974e-05
0.0399483
5.22158e-05
0.0399568
5.9236e-05
0.0399635
6.27551e-05
0.0399703
6.88002e-05
0.0399752
7.14394e-05
0.0399838
7.27427e-05
0.0399903
7.08018e-05
0.0399963
6.77062e-05
0.0400061
5.55743e-05
0.0400353
5.25178e-05
0.0400581
5.4563e-05
0.0400186
5.98741e-05
0.0400105
5.45307e-05
0.040012
4.86232e-05
0.040015
4.22371e-05
0.0400176
3.54511e-05
0.0400198
3.03415e-05
0.0400197
2.09742e-05
0.0400231
1.54223e-05
0.0400221
7.7449e-06
0.0400248
0.0400232
-1.14157e-05
0.0400498
-2.28279e-05
0.0400498
-3.22223e-05
0.0400496
-4.55958e-05
0.0400513
-5.49185e-05
0.0400489
-6.61861e-05
0.0400503
-7.73568e-05
0.0400475
-8.83963e-05
0.0400485
-9.92537e-05
0.0400471
-0.000109867
0.0400454
-0.000110149
0.0400432
-0.000118028
0.0400506
-0.00012544
0.0400493
-9.82133e-05
0.0400552
-0.000129985
0.0400865
-0.000144997
0.0399994
-0.000156817
0.0400171
-0.000163355
0.0400199
-0.000164399
0.040022
-0.000161749
0.0400551
-0.000173237
0.0400278
-0.000172752
0.0399899
-0.000168161
0.0399756
-0.00016142
0.0399651
-0.000152493
0.0399547
-0.000141481
0.0399443
-0.000128506
0.0399352
-0.000113985
0.0399288
-9.921e-05
0.039937
-8.75865e-05
0.039977
-7.10876e-05
0.0399275
-5.29569e-05
0.0399107
-3.45139e-05
0.0399087
-1.69339e-05
0.0399103
-9.68463e-07
0.039914
1.48774e-05
0.0399185
3.13539e-05
0.0399224
4.42801e-05
0.0399313
5.35254e-05
0.039939
6.50078e-05
0.0399453
7.27109e-05
0.0399558
7.86507e-05
0.0399644
8.28843e-05
0.0399709
8.54849e-05
0.0399812
8.65565e-05
0.0399892
8.2217e-05
0.0400007
6.05981e-05
0.0400277
4.58316e-05
0.0400501
6.79622e-05
0.040036
7.31604e-05
0.0400134
6.95505e-05
0.0400141
6.32351e-05
0.0400183
5.6313e-05
0.040022
5.08806e-05
0.0400231
4.30184e-05
0.0400277
3.28143e-05
0.0400299
2.63431e-05
0.0400295
1.56703e-05
0.0400328
8.87168e-06
0.0400316
0.0400321
-1.25395e-05
0.0400624
-2.50798e-05
0.0400623
-3.76123e-05
0.0400621
-4.81261e-05
0.0400618
-6.26188e-05
0.0400634
-7.30577e-05
0.0400608
-8.74282e-05
0.0400619
-9.7674e-05
0.0400587
-0.00010977
0.0400592
-0.000121633
0.0400573
-0.000133187
0.0400548
-0.000134318
0.0400517
-0.000142939
0.0400579
-0.000144944
0.0400572
-0.000145986
0.0400876
-0.000170062
0.0400235
-0.000178925
0.040026
-0.000182368
0.0400234
-0.000180165
0.0400197
-0.000154091
0.040029
-0.000181675
0.0400554
-0.000193062
0.0400013
-0.000190016
0.0399725
-0.00018241
0.0399575
-0.000172221
0.0399445
-0.000159321
0.0399314
-0.000144462
0.0399204
-0.000127329
0.0399116
-0.000110036
0.0399197
-9.54717e-05
0.0399624
-7.59328e-05
0.0399079
-5.45493e-05
0.0398893
-3.35154e-05
0.0398877
-1.27082e-05
0.0398895
7.6553e-06
0.0398936
2.58197e-05
0.0399003
4.03011e-05
0.0399079
5.6881e-05
0.0399148
6.94315e-05
0.0399265
7.78858e-05
0.0399368
8.82292e-05
0.0399454
9.45133e-05
0.0399581
9.68196e-05
0.0399686
0.000101257
0.0399768
9.99668e-05
0.0399905
8.70915e-05
0.0400136
6.08362e-05
0.0400539
7.52088e-05
0.0400357
9.04286e-05
0.0400207
8.66556e-05
0.0400171
8.00084e-05
0.0400208
7.26038e-05
0.0400257
6.45661e-05
0.04003
5.59869e-05
0.0400317
4.6963e-05
0.0400367
3.95844e-05
0.0400372
2.9926e-05
0.0400392
2.00635e-05
0.0400427
1.00682e-05
0.0400416
0.0400421
-1.36611e-05
0.040076
-2.73283e-05
0.040076
-4.09981e-05
0.0400758
-5.46676e-05
0.0400755
-6.63252e-05
0.040075
-7.99637e-05
0.0400744
-9.35555e-05
0.0400755
-0.000107063
0.0400722
-0.000120441
0.0400726
-0.00013362
0.0400704
-0.000144506
0.0400657
-0.000157024
0.0400642
-0.000161012
0.0400619
-0.000168417
0.0400646
-0.000145016
0.0400642
-0.000180228
0.0400587
-0.000198239
0.040044
-0.000206741
0.0400319
-0.000209446
0.0400225
-0.000202005
0.0400216
-0.000216003
0.0400694
-0.000219427
0.0400047
-0.000213985
0.0399671
-0.000205507
0.039949
-0.000193973
0.0399329
-0.000179403
0.0399168
-0.000162019
0.039903
-0.000142296
0.0398919
-0.000121672
0.0398991
-0.000103718
0.0399445
-8.06598e-05
0.0398849
-5.59359e-05
0.0398646
-3.107e-05
0.0398628
-7.23263e-06
0.0398657
1.40724e-05
0.0398723
3.68108e-05
0.0398776
5.54715e-05
0.0398893
6.98238e-05
0.0399004
8.57195e-05
0.0399106
9.71202e-05
0.0399254
0.000104045
0.0399385
0.000112565
0.0399496
0.000116817
0.0399644
0.000118939
0.0399747
0.00011312
0.0399963
9.95543e-05
0.0400271
9.63969e-05
0.0400571
0.000109816
0.0400223
0.000105994
0.0400246
9.91e-05
0.040024
9.12793e-05
0.0400286
8.267e-05
0.0400343
7.53993e-05
0.0400373
6.35698e-05
0.0400435
5.52915e-05
0.040045
4.26452e-05
0.0400499
3.17214e-05
0.0400501
2.2596e-05
0.0400518
1.13344e-05
0.0400529
0.0400535
-1.47761e-05
0.0400908
-2.75579e-05
0.0400888
-4.2364e-05
0.0400906
-5.71884e-05
0.0400903
-7.20308e-05
0.0400899
-8.68826e-05
0.0400892
-0.000101725
0.0400903
-0.000116527
0.040087
-0.000131243
0.0400873
-0.000143804
0.040083
-0.00016014
0.040082
-0.000174129
0.0400782
-0.000185631
0.0400734
-0.000188489
0.0400675
-0.00019657
0.0400722
-0.000211367
0.0400735
-0.000222881
0.0400555
-0.000230726
0.0400397
-0.000236552
0.0400283
-0.000240015
0.040025
-0.000246645
0.040076
-0.000246278
0.0400043
-0.000240552
0.0399613
-0.000231247
0.0399397
-0.000218254
0.03992
-0.000201646
0.0399002
-0.000181387
0.0398827
-0.000158481
0.039869
-0.000134403
0.039875
-0.000112484
0.0399225
-8.52956e-05
0.0398577
-5.62424e-05
0.0398355
-2.7594e-05
0.0398342
-4.5008e-08
0.0398382
2.65886e-05
0.0398457
4.82224e-05
0.0398559
7.12657e-05
0.0398662
8.94942e-05
0.0398822
0.000102779
0.0398973
0.000117082
0.0399111
0.000126488
0.0399291
0.000133106
0.039943
0.000137119
0.0399604
0.000132743
0.039979
0.00010823
0.0400208
9.18018e-05
0.0400436
0.00012353
0.0400254
0.000125761
0.0400201
0.000118709
0.0400316
0.000112525
0.0400302
0.000103389
0.0400377
9.34385e-05
0.0400443
8.28136e-05
0.0400479
7.16309e-05
0.0400547
5.99962e-05
0.0400566
5.0006e-05
0.0400599
3.7737e-05
0.0400624
2.52667e-05
0.0400643
1.26692e-05
0.0400655
0.0400661
-1.58786e-05
0.0401067
-3.17766e-05
0.0401046
-4.7708e-05
0.0401065
-6.36838e-05
0.0401063
-7.97103e-05
0.0401059
-9.57869e-05
0.0401053
-0.000109897
0.0401044
-0.000126028
0.0401032
-0.000140123
0.0401014
-0.00015816
0.040101
-0.000172015
0.0400959
-0.000187593
0.0400938
-0.000202773
0.0400886
-0.000217346
0.0400821
-0.000223086
0.040078
-0.000235703
0.0400861
-0.000246951
0.0400667
-0.000256464
0.0400493
-0.000263791
0.0400356
-0.000268474
0.0400297
-0.000274029
0.0400816
-0.000276101
0.0400064
-0.000270269
0.0399555
-0.000260198
0.0399296
-0.000245712
0.0399055
-0.000226808
0.0398813
-0.000203738
0.0398597
-0.000176896
0.0398422
-0.000148549
0.0398466
-0.000121924
0.0398959
-8.98617e-05
0.0398256
-5.61507e-05
0.0398018
-2.2836e-05
0.0398009
9.0098e-06
0.0398063
3.96473e-05
0.039815
6.6506e-05
0.0398291
8.81749e-05
0.0398446
0.000110383
0.03986
0.000127048
0.0398807
0.00014019
0.039898
0.000149912
0.0399194
0.000156437
0.0399365
0.000157992
0.0399588
0.000140898
0.0399961
0.000111497
0.0400502
0.000137819
0.0400172
0.000148237
0.0400149
0.000141115
0.0400272
0.000136632
0.0400361
0.000124976
0.0400419
0.000116349
0.0400464
0.00010492
0.0400557
9.28167e-05
0.04006
8.21707e-05
0.0400653
6.70788e-05
0.0400717
5.3647e-05
0.0400733
3.9953e-05
0.0400761
2.80749e-05
0.0400761
1.40702e-05
0.0400795
0.0400802
-1.49534e-05
0.0401217
-3.39493e-05
0.0401236
-5.09912e-05
0.0401236
-6.61e-05
0.0401214
-8.33062e-05
0.0401231
-0.000100607
0.0401226
-0.000118017
0.0401218
-0.000135508
0.0401207
-0.000153055
0.040119
-0.000168603
0.0401166
-0.000188094
0.0401154
-0.000205405
0.0401111
-0.000220396
0.0401036
-0.000236876
0.0400985
-0.000250635
0.0400917
-0.000259298
0.0400948
-0.000274614
0.040082
-0.000284133
0.0400588
-0.000293355
0.0400448
-0.000297734
0.0400341
-0.000288654
0.0400725
-0.000305472
0.0400232
-0.000303791
0.0399538
-0.000293095
0.0399189
-0.000277075
0.0398894
-0.000255676
0.0398599
-0.000229108
0.0398331
-0.00019813
0.0398112
-0.00016448
0.039813
-0.000132266
0.0398637
-9.43752e-05
0.0397877
-5.48727e-05
0.0397623
-1.5858e-05
0.0397619
2.09973e-05
0.0397695
5.3807e-05
0.0397822
8.6278e-05
0.0397966
0.000112785
0.039818
0.000135074
0.0398377
0.000153094
0.0398626
0.00016692
0.0398841
0.000176765
0.0399096
0.000180924
0.0399323
0.00017974
0.03996
0.00016362
0.0400123
0.000170878
0.0400429
0.000173721
0.0400144
0.000168661
0.04002
0.000157984
0.0400379
0.000151793
0.0400423
0.000142468
0.0400512
0.000130182
0.0400586
0.00011711
0.0400688
0.000103395
0.0400737
8.91589e-05
0.0400796
7.65277e-05
0.0400844
6.15704e-05
0.0400883
4.63744e-05
0.0400913
2.90034e-05
0.0400935
1.55333e-05
0.040093
0.0400957
-1.80112e-05
0.0401397
-3.60631e-05
0.0401417
-5.21818e-05
0.0401397
-7.24231e-05
0.0401416
-8.87864e-05
0.0401395
-0.000107316
0.0401412
-0.000126017
0.0401405
-0.000144889
0.0401395
-0.000163915
0.040138
-0.000183051
0.0401357
-0.000200256
0.0401326
-0.00021942
0.0401303
-0.000238398
0.0401226
-0.000257039
0.0401172
-0.000275048
0.0401098
-0.000292131
0.0401118
-0.000299885
0.0400898
-0.000315871
0.0400748
-0.000323512
0.0400525
-0.000324215
0.0400348
-0.000287219
0.0400355
-0.000325078
0.0400611
-0.000339904
0.0399687
-0.000330813
0.0399098
-0.000313287
0.0398719
-0.000289157
0.0398358
-0.000258603
0.0398025
-0.000222252
0.0397748
-0.00018271
0.0397734
-0.000143724
0.0398247
-9.88021e-05
0.0397428
-5.21441e-05
0.0397156
-6.78565e-06
0.0397165
3.59392e-05
0.0397267
7.57501e-05
0.0397424
0.000108297
0.0397641
0.000139869
0.0397865
0.000162299
0.0398153
0.000183549
0.0398414
0.000195838
0.0398719
0.000207504
0.0398979
0.000206965
0.0399328
0.000176776
0.0399902
0.000165324
0.0400237
0.000196727
0.0400115
0.000201773
0.0400093
0.000192829
0.0400289
0.00018224
0.0400485
0.000170162
0.0400544
0.000158966
0.0400624
0.000142847
0.0400748
0.000129983
0.0400816
0.000114522
0.0400892
9.85929e-05
0.0400955
8.23023e-05
0.0401007
6.57357e-05
0.0401048
5.09711e-05
0.0401061
3.40569e-05
0.0401104
1.70526e-05
0.04011
0.0401128
-1.90217e-05
0.0401587
-3.80955e-05
0.0401608
-5.7268e-05
0.0401589
-7.4579e-05
0.040159
-9.60958e-05
0.040161
-0.000113822
0.0401589
-0.000133811
0.0401605
-0.000154071
0.0401598
-0.000174605
0.0401585
-0.000195394
0.0401565
-0.000216396
0.0401536
-0.000235526
0.0401494
-0.000258687
0.0401457
-0.000277673
0.0401362
-0.000298261
0.0401303
-0.000318087
0.0401317
-0.000336771
0.0401085
-0.000345756
0.0400837
-0.000360422
0.0400671
-0.00036996
0.0400443
-0.000363487
0.040029
-0.000379511
0.0400771
-0.000385537
0.0399747
-0.000374503
0.0398988
-0.000355599
0.039853
-0.00032846
0.0398086
-0.000293291
0.0397674
-0.000251022
0.0397326
-0.000203877
0.0397263
-0.000156608
0.0397775
-0.000103083
0.0396893
-4.79896e-05
0.0396606
5.02185e-06
0.0396635
5.48586e-05
0.0396769
0.000100433
0.0396968
0.000139493
0.039725
0.000172361
0.0397536
0.000198871
0.0397887
0.000219171
0.0398211
0.00023361
0.0398574
0.000238685
0.0398928
0.000225025
0.0399465
0.000193411
0.0400218
0.000221814
0.0399953
0.000235101
0.0399983
0.000227997
0.0400164
0.000214871
0.0400421
0.00020401
0.0400593
0.000191788
0.0400666
0.00017448
0.0400797
0.000160324
0.0400889
0.000143496
0.0400985
0.000126151
0.0401065
0.000108413
0.0401132
9.2385e-05
0.0401167
7.41316e-05
0.0401231
5.37147e-05
0.0401265
3.72032e-05
0.0401269
1.66115e-05
0.0401306
0.0401294
-1.99782e-05
0.0401787
-3.8011e-05
0.0401788
-6.01895e-05
0.040181
-8.05466e-05
0.0401793
-9.91417e-05
0.0401796
-0.000122056
0.0401818
-0.000141292
0.0401798
-0.000162938
0.0401814
-0.000182978
0.0401786
-0.000205445
0.040179
-0.000228301
0.0401764
-0.000251532
0.0401726
-0.00027501
0.0401692
-0.000298594
0.0401598
-0.000322057
0.0401538
-0.000343056
0.0401527
-0.000365176
0.0401306
-0.000387863
0.0401064
-0.000400274
0.0400795
-0.000413587
0.0400576
-0.000420566
0.040036
-0.000411825
0.0400684
-0.000429881
0.0399927
-0.000425537
0.0398944
-0.000405536
0.039833
-0.000375235
0.0397783
-0.000334714
0.0397268
-0.000284819
0.0396827
-0.000228782
0.0396703
-0.000171288
0.03972
-0.000107117
0.0396251
-4.18568e-05
0.0395953
2.10359e-05
0.0396006
7.90437e-05
0.0396189
0.000129046
0.0396468
0.000175079
0.039679
0.000209394
0.0397193
0.000239895
0.0397582
0.000256912
0.0398041
0.000265024
0.0398493
0.000266912
0.0398909
0.000259513
0.0399539
0.000267456
0.0400138
0.000273372
0.0399894
0.000268182
0.0400034
0.000252486
0.0400321
0.000236812
0.0400577
0.000227301
0.0400688
0.000210583
0.0400833
0.000194928
0.0400954
0.000176528
0.0401073
0.000157575
0.0401174
0.000138208
0.0401259
0.000120568
0.0401309
9.86975e-05
0.0401386
8.0697e-05
0.0401411
6.05916e-05
0.0401466
4.04246e-05
0.0401471
2.02199e-05
0.0401508
0.0401496
-2.08675e-05
0.0401995
-4.18105e-05
0.0401997
-6.08999e-05
0.0402001
-8.22322e-05
0.0402006
-0.000105884
0.0402032
-0.000125896
0.0402018
-0.000148368
0.0402022
-0.000171353
0.0402044
-0.000194902
0.0402021
-0.000219054
0.0402031
-0.000243827
0.0402012
-0.00026921
0.040198
-0.000293142
0.0401931
-0.000319513
0.0401861
-0.000344164
0.0401785
-0.000368832
0.0401773
-0.000396906
0.0401587
-0.000421945
0.0401315
-0.000445151
0.0401028
-0.00045731
0.0400698
-0.00046333
0.040042
-0.000421417
0.0400265
-0.000468347
0.0400397
-0.000483603
0.0399097
-0.000465069
0.0398145
-0.000431491
0.0397448
-0.000384563
0.0396799
-0.000326076
0.0396242
-0.000258504
0.0396027
-0.000188116
0.0396496
-0.000110623
0.0395476
-3.2316e-05
0.039517
4.1915e-05
0.0395264
0.000109404
0.0395514
0.000169151
0.0395871
0.000218662
0.0396295
0.000258412
0.0396795
0.000284616
0.039732
0.000291884
0.0397968
0.000281046
0.0398601
0.000267157
0.0399048
0.000269166
0.0399519
0.000311723
0.0399713
0.000312413
0.0399887
0.000300027
0.0400158
0.000283187
0.040049
0.000268332
0.0400726
0.00025193
0.0400852
0.000234462
0.0401008
0.000214196
0.0401156
0.000193355
0.0401282
0.000172119
0.0401387
0.000152626
0.0401454
0.000128953
0.0401545
0.000109196
0.0401583
8.53705e-05
0.0401649
6.55385e-05
0.0401664
4.16818e-05
0.040171
2.18428e-05
0.0401706
0.0401715
-2.1675e-05
0.0402212
-4.34379e-05
0.0402215
-6.53831e-05
0.0402221
-8.76139e-05
0.0402229
-0.000108203
0.0402238
-0.000131268
0.0402249
-0.000154891
0.0402259
-0.000179153
0.0402287
-0.000204165
0.0402271
-0.000229976
0.040229
-0.000254645
0.0402259
-0.000282221
0.0402256
-0.000310741
0.0402216
-0.000340128
0.0402155
-0.000368303
0.0402066
-0.000391096
0.0402001
-0.000425642
0.0401932
-0.000459866
0.0401657
-0.0004888
0.0401317
-0.000515254
0.0400963
-0.000527586
0.0400544
-0.000531731
0.0400306
-0.000552297
0.0400602
-0.000555323
0.0399127
-0.000537194
0.0397964
-0.000500573
0.0397081
-0.000446465
0.0396258
-0.000376517
0.0395542
-0.000294859
0.039521
-0.000207599
0.0395623
-0.000113289
0.0394533
-1.91914e-05
0.0394229
6.9417e-05
0.0394378
0.000148577
0.0394722
0.000216641
0.039519
0.000269814
0.0395763
0.000311133
0.0396382
0.000326681
0.0397165
0.000333249
0.0397902
0.000346215
0.0398472
0.000335362
0.0399157
0.000353437
0.0399338
0.000364114
0.0399606
0.000354914
0.0399979
0.000334659
0.0400361
0.000312112
0.0400715
0.000297543
0.0400872
0.000277797
0.040105
0.000255243
0.0401233
0.000232118
0.0401387
0.000210652
0.0401496
0.000186976
0.0401623
0.000163238
0.0401691
0.00013948
0.0401783
0.000115759
0.040182
9.41062e-05
0.0401866
6.84977e-05
0.040192
4.69663e-05
0.0401925
2.34689e-05
0.0401941
0.0401949
-2.23864e-05
0.0402436
-4.4872e-05
0.040244
-6.75721e-05
0.0402448
-8.85834e-05
0.0402439
-0.000112044
0.0402473
-0.000136055
0.0402489
-0.000162746
0.0402526
-0.000186199
0.0402521
-0.000212571
0.0402535
-0.000237958
0.0402543
-0.000268513
0.0402564
-0.000296286
0.0402534
-0.00032738
0.0402527
-0.00035987
0.040248
-0.000393695
0.0402405
-0.000424778
0.0402312
-0.000462635
0.0402311
-0.000498929
0.040202
-0.000534938
0.0401677
-0.00056928
0.0401306
-0.000600107
0.0400852
-0.000614877
0.0400454
-0.000623732
0.0400691
-0.000640009
0.039929
-0.000623759
0.0397801
-0.000583921
0.0396683
-0.000521598
0.0395635
-0.000437851
0.0394705
-0.000336247
0.0394194
-0.000226786
0.0394529
-0.000112908
0.0393394
1.59479e-06
0.0393084
0.000107281
0.0393321
0.000199547
0.03938
0.000275201
0.0394434
0.000335959
0.0395155
0.000364162
0.03961
0.00037789
0.0397028
0.000400373
0.0397677
0.000419564
0.039828
0.000425936
0.0399093
0.00042706
0.0399327
0.000414906
0.0399728
0.000396815
0.040016
0.000373833
0.0400591
0.000352722
0.0400926
0.000330125
0.0401098
0.00030668
0.0401284
0.000280719
0.0401493
0.000254502
0.040165
0.00022822
0.0401759
0.000201998
0.0401886
0.000175916
0.0401952
0.000152023
0.0402022
0.000124303
0.0402098
9.87811e-05
0.0402121
7.54307e-05
0.0402154
5.02098e-05
0.0402177
2.50769e-05
0.0402192
0.04022
-2.29872e-05
0.0402666
-4.40692e-05
0.0402651
-6.74074e-05
0.0402681
-9.31262e-05
0.0402696