/*--------------------------------*- C++ -*----------------------------------*\
  =========                 |
  \\      /  F ield         | OpenFOAM: The Open Source CFD Toolbox
   \\    /   O peration     | Website:  https://openfoam.org
    \\  /    A nd           | Version:  12
     \\/     M anipulation  |
\*---------------------------------------------------------------------------*/
FoamFile
{
    format      ascii;
    class       volVectorField;
    location    "200";
    object      U;
}
// * * * * * * * * * * * * * * * * * * * * * * * * * * * * * * * * * * * * * //

dimensions      [0 1 -1 0 0 0 0];

internalField   nonuniform List<vector> 
16227
(
(2 -8.81294e-06 -6.44597e-23)
(2 -2.63926e-05 6.48573e-23)
(2 -4.38942e-05 -6.48581e-23)
(2 -6.13057e-05 -6.55266e-23)
(2 -7.8574e-05 6.55275e-23)
(2 -9.56394e-05 6.66196e-23)
(2 -0.000112449 7.1699e-25)
(2 -0.000128924 -1.35463e-22)
(2 -0.000144967 2.06269e-22)
(2 -0.000160462 -1.38124e-22)
(2 -0.00017528 0)
(2 -0.000189288 1.43533e-22)
(2 -0.000202356 0)
(2 -0.00021434 0)
(2 -0.000225034 0)
(2 -0.000234257 0)
(2 -0.00024182 0)
(2 -0.000247534 0)
(2 -0.000251219 0)
(2 -0.000252711 0)
(2 -0.000251868 -1.71969e-22)
(2 -0.000248585 -3.18863e-24)
(2 -0.000242792 1.75157e-22)
(2 -0.000234466 0)
(2 -0.000223639 -1.84174e-22)
(2 -0.000210398 1.84173e-22)
(2 -0.000194894 0)
(2 -0.000177323 9.53556e-23)
(2 -0.000157953 0)
(2 -0.000137104 0)
(2 -0.000115118 0)
(2 -9.23761e-05 0)
(2 -6.92625e-05 0)
(2 -4.61807e-05 2.00007e-22)
(2 -2.35192e-05 3.88141e-25)
(2 -1.6458e-06 -2.004e-22)
(2 1.91045e-05 0)
(2 3.84332e-05 1.99982e-22)
(2 5.60879e-05 -6.10484e-25)
(2 7.18641e-05 -1.99373e-22)
(2 8.56072e-05 0)
(2 9.72112e-05 0)
(2 0.000106617 0)
(2 0.000113807 0)
(2 0.000118804 0)
(2 0.000121664 0)
(2 0.000122466 0)
(2 0.000121323 0)
(2 0.000118351 0)
(2 0.000113681 0)
(2 0.000107462 0)
(2 9.9843e-05 0)
(2 9.099e-05 0)
(2 8.10402e-05 0)
(2 7.01447e-05 -8.99327e-23)
(2 5.84506e-05 8.99364e-23)
(2 4.61149e-05 0)
(2 3.32929e-05 0)
(2 2.01264e-05 0)
(2 6.73812e-06 8.87773e-23)
(2.00004 -3.31515e-05 2.24019e-25)
(2.00004 -9.92661e-05 0)
(2.00004 -0.000165128 0)
(2.00004 -0.000230657 0)
(2.00004 -0.000295628 -1.10879e-22)
(2.00004 -0.000359857 0)
(2.00004 -0.000423108 0)
(2.00004 -0.000485109 -3.44381e-22)
(2.00004 -0.000545489 2.30182e-22)
(2.00004 -0.000603846 -4.73607e-22)
(2.00003 -0.000659681 1.91272e-21)
(2.00003 -0.000712475 -1.20971e-21)
(2.00003 -0.000761786 6.1268e-22)
(2.00003 -0.000807035 0)
(2.00002 -0.000847488 0)
(2.00002 -0.000882471 0)
(2.00002 -0.000911272 0)
(2.00001 -0.000933192 0)
(2.00001 -0.000947563 0)
(2 -0.000953767 0)
(1.99999 -0.000951264 0)
(1.99999 -0.000939668 0)
(1.99998 -0.000918735 0)
(1.99998 -0.000888361 0)
(1.99997 -0.000848665 0)
(1.99997 -0.000799975 -3.16228e-22)
(1.99996 -0.000742844 3.16238e-22)
(1.99996 -0.000678021 -1.61235e-22)
(1.99995 -0.000606495 0)
(1.99995 -0.000529433 0)
(1.99995 -0.000448134 0)
(1.99995 -0.000364005 0)
(1.99995 -0.000278487 0)
(1.99995 -0.000193064 0)
(1.99995 -0.000109174 0)
(1.99995 -2.81723e-05 -3.39395e-22)
(1.99995 4.86934e-05 2.68585e-25)
(1.99996 0.000120335 6.82795e-25)
(1.99996 0.000185822 1.06136e-24)
(1.99997 0.000244407 3.37418e-22)
(1.99997 0.000295528 3.34317e-22)
(1.99998 0.0003388 -3.34309e-22)
(1.99998 0.000374011 0)
(1.99999 0.000401116 0)
(1.99999 0.000420189 0)
(2 0.00043144 0)
(2 0.000435179 0)
(2.00001 0.000431801 0)
(2.00001 0.000421752 0)
(2.00001 0.000405533 0)
(2.00002 0.000383673 3.11046e-22)
(2.00002 0.000356713 -6.20856e-22)
(2.00002 0.000325244 -6.14149e-22)
(2.00002 0.000289806 6.14167e-22)
(2.00003 0.000250916 -6.0794e-22)
(2.00003 0.000209145 9.10687e-22)
(2.00003 0.000165053 -3.02866e-22)
(2.00003 0.000119174 1.50643e-22)
(2.00003 7.2038e-05 -1.50646e-22)
(2.00003 2.41003e-05 -1.61801e-25)
(2.00013 -6.04841e-05 1.08612e-22)
(2.00013 -0.000181137 0)
(2.00013 -0.000301371 0)
(2.00013 -0.000421009 0)
(2.00013 -0.000539658 1.10866e-22)
(2.00013 -0.000656961 -2.24426e-22)
(2.00012 -0.000772528 -2.44153e-24)
(2.00012 -0.000885839 3.40963e-22)
(2.00012 -0.000996256 1.15304e-22)
(2.00011 -0.00110306 4.72489e-22)
(2.00011 -0.0012054 -4.69022e-22)
(2.0001 -0.00130223 -9.64348e-22)
(2.00009 -0.0013928 1.22646e-22)
(2.00008 -0.0014761 0)
(2.00007 -0.00155076 1.27676e-22)
(2.00006 -0.00161558 0)
(2.00005 -0.00166928 0)
(2.00004 -0.00171058 0)
(2.00002 -0.00173825 -5.59271e-22)
(2 -0.00175119 5.59218e-22)
(1.99999 -0.00174839 -2.90774e-22)
(1.99997 -0.00172914 2.9078e-22)
(1.99995 -0.00169298 0)
(1.99993 -0.00163972 -3.06938e-22)
(1.99991 -0.00156955 -4.99448e-24)
(1.9999 -0.00148307 3.11964e-22)
(1.99988 -0.00138125 0)
(1.99987 -0.00126547 0)
(1.99985 -0.0011375 0)
(1.99984 -0.000999444 0)
(1.99984 -0.000853637 1.67453e-22)
(1.99983 -0.000702665 -3.34417e-22)
(1.99983 -0.000549113 0)
(1.99983 -0.000395663 0)
(1.99984 -0.000244905 3.39986e-22)
(1.99984 -9.92735e-05 -3.40011e-22)
(1.99985 3.90024e-05 0)
(1.99987 0.000167978 0)
(1.99988 0.000285986 0)
(1.99989 0.000391704 0)
(1.99991 0.000484141 0)
(1.99992 0.000562626 0)
(1.99994 0.000626802 -1.65919e-22)
(1.99996 0.000676587 0)
(1.99997 0.00071214 0)
(1.99999 0.000733843 0)
(2 0.000742268 -1.59577e-22)
(2.00001 0.00073811 3.20438e-22)
(2.00003 0.00072217 0)
(2.00004 0.00069536 1.57015e-22)
(2.00005 0.000658611 0)
(2.00006 0.00061291 3.09758e-22)
(2.00007 0.000559262 6.13544e-22)
(2.00007 0.000498596 1.49412e-22)
(2.00008 0.000431875 -6.10196e-22)
(2.00008 0.000360119 3.0239e-22)
(2.00009 0.000284291 -3.02492e-22)
(2.00009 0.000205307 0)
(2.00009 0.000124118 0)
(2.00009 4.15168e-05 -1.49737e-22)
(2.00028 -8.88841e-05 0)
(2.00028 -0.000266273 0)
(2.00028 -0.00044308 -1.08509e-22)
(2.00027 -0.000619042 0)
(2.00027 -0.000793575 -1.10664e-22)
(2.00027 -0.000966199 1.10655e-22)
(2.00026 -0.00113632 0)
(2.00026 -0.0013032 -3.4398e-22)
(2.00025 -0.00146592 3.41912e-22)
(2.00024 -0.00162346 0)
(2.00023 -0.00177462 -4.7831e-22)
(2.00022 -0.00191773 -1.44567e-21)
(2.0002 -0.00205181 -2.45798e-22)
(2.00018 -0.00217533 0)
(2.00016 -0.00228627 -1.27625e-22)
(2.00014 -0.00238285 0)
(2.00011 -0.00246319 0)
(2.00008 -0.0025254 1.09524e-21)
(2.00005 -0.00256769 -1.09551e-21)
(2.00001 -0.00258828 0)
(1.99997 -0.00258571 -2.90846e-22)
(1.99993 -0.00255897 -5.66176e-24)
(1.9999 -0.00250728 -5.5462e-24)
(1.99986 -0.0024303 3.02096e-22)
(1.99982 -0.00232834 0)
(1.99978 -0.00220224 0)
(1.99975 -0.00205345 0)
(1.99972 -0.00188401 1.63073e-22)
(1.99969 -0.00169653 1.38559e-24)
(1.99967 -0.0014941 1.66431e-22)
(1.99966 -0.00128025 4.05273e-25)
(1.99965 -0.0010588 0)
(1.99964 -0.000833602 0)
(1.99965 -0.000608615 0)
(1.99966 -0.00038766 -3.41286e-22)
(1.99967 -0.000174332 -7.20289e-26)
(1.99969 2.8089e-05 4.00108e-25)
(1.99971 0.000216782 8.37739e-25)
(1.99974 0.000389311 6.79131e-22)
(1.99977 0.000543795 -3.389e-22)
(1.9998 0.000678818 0)
(1.99984 0.000793447 -1.67393e-22)
(1.99987 0.000887196 1.65911e-22)
(1.9999 0.00095998 0)
(1.99994 0.0010121 0)
(1.99997 0.00104415 0)
(2 0.00105698 -1.60837e-22)
(2.00003 0.00105165 0)
(2.00005 0.00102934 0)
(2.00008 0.000991377 -3.13797e-22)
(2.0001 0.000939154 -6.2056e-22)
(2.00012 0.00087409 1.23676e-21)
(2.00014 0.000797654 -6.16448e-22)
(2.00015 0.000711102 -7.61846e-22)
(2.00016 0.000615944 6.08997e-22)
(2.00017 0.000513613 0)
(2.00018 0.00040548 0)
(2.00019 0.000292826 1.49935e-22)
(2.00019 0.000177033 0)
(2.00019 5.92247e-05 0)
(2.00049 -0.000117398 0)
(2.00048 -0.000351827 0)
(2.00048 -0.00058552 8.16062e-25)
(2.00048 -0.000818138 0)
(2.00047 -0.00104894 0)
(2.00047 -0.00127732 -2.20943e-22)
(2.00046 -0.00150246 -3.37847e-22)
(2.00045 -0.00172345 3.3553e-22)
(2.00044 -0.00193911 0)
(2.00042 -0.00214808 0)
(2.0004 -0.00234884 -4.75827e-22)
(2.00038 -0.00253908 2.88279e-21)
(2.00035 -0.00271762 -2.43571e-22)
(2.00032 -0.00288224 2.46645e-22)
(2.00028 -0.0030304 0)
(2.00024 -0.00315967 0)
(2.00019 -0.00326745 5.35217e-22)
(2.00014 -0.00335131 1.63961e-21)
(2.00008 -0.00340881 -8.17606e-22)
(2.00002 -0.00343715 0)
(1.99996 -0.00343459 0)
(1.99989 -0.00339985 0)
(1.99982 -0.00333162 0)
(1.99975 -0.00322947 -3.08245e-22)
(1.99968 -0.00309373 -5.33812e-24)
(1.99962 -0.00292553 -5.03387e-24)
(1.99956 -0.0027268 3.18727e-22)
(1.99951 -0.00250031 1.63323e-22)
(1.99946 -0.00224956 1.29821e-24)
(1.99943 -0.00197878 -1.65665e-22)
(1.9994 -0.00169277 5.06267e-22)
(1.99939 -0.00139675 -3.37622e-22)
(1.99938 -0.00109599 -3.41482e-22)
(1.99939 -0.000795803 3.41531e-22)
(1.9994 -0.0005014 3.43144e-22)
(1.99943 -0.000217583 -3.4319e-22)
(1.99946 5.12571e-05 0)
(1.9995 0.000301364 0)
(1.99955 0.000529559 -3.40263e-22)
(1.9996 0.000733376 3.40221e-22)
(1.99966 0.000910996 3.36359e-22)
(1.99972 0.00106128 -1.68932e-22)
(1.99977 0.00118366 0)
(1.99983 0.00127815 0)
(1.99989 0.00134522 0)
(1.99994 0.00138574 0)
(1.99999 0.00140091 0)
(2.00004 0.00139221 0)
(2.00009 0.00136125 -1.57929e-22)
(2.00013 0.00130982 -7.8053e-22)
(2.00017 0.00123982 6.24149e-22)
(2.0002 0.00115312 6.14908e-22)
(2.00023 0.00105157 -9.20919e-22)
(2.00026 0.000936902 6.07255e-22)
(2.00028 0.000811153 -6.07256e-22)
(2.0003 0.000676144 0)
(2.00031 0.000533641 0)
(2.00032 0.000385302 -5.80702e-25)
(2.00033 0.000232914 0)
(2.00033 7.79357e-05 0)
(2.00075 -0.000145765 -1.05734e-22)
(2.00075 -0.000436992 0)
(2.00074 -0.000727353 1.64198e-25)
(2.00074 -0.00101646 1.07489e-22)
(2.00073 -0.00130344 0)
(2.00072 -0.00158754 9.83745e-25)
(2.00071 -0.0018678 -2.22634e-22)
(2.0007 -0.00214309 2.22573e-22)
(2.00068 -0.00241199 0)
(2.00065 -0.00267283 0)
(2.00062 -0.00292382 2.33298e-22)
(2.00059 -0.00316199 9.49911e-22)
(2.00054 -0.00338573 -4.86979e-22)
(2.0005 -0.00359232 2.46894e-22)
(2.00044 -0.00377869 0)
(2.00037 -0.00394162 -2.61057e-22)
(2.0003 -0.00407782 2.6114e-22)
(2.00022 -0.00418429 1.08916e-23)
(2.00013 -0.00425758 -1.22944e-21)
(2.00004 -0.00429394 -2.84789e-22)
(1.99994 -0.00429133 2.81892e-22)
(1.99983 -0.00424804 -6.13746e-24)
(1.99972 -0.00416215 2.97344e-22)
(1.99962 -0.00403312 0)
(1.99951 -0.0038612 0)
(1.99941 -0.00364781 0)
(1.99932 -0.00339542 0)
(1.99924 -0.00310757 -1.63309e-22)
(1.99917 -0.00278883 0)
(1.99911 -0.00244461 0)
(1.99907 -0.00208118 5.11363e-22)
(1.99905 -0.00170542 -3.40069e-22)
(1.99904 -0.00132408 0)
(1.99905 -0.000944089 0)
(1.99908 -0.00057213 0)
(1.99912 -0.000214345 0)
(1.99917 0.000123656 3.44781e-22)
(1.99923 0.000437155 -1.15789e-24)
(1.99931 0.000722232 -5.15463e-22)
(1.99939 0.000975826 0)
(1.99947 0.00119578 0)
(1.99956 0.0013808 3.34959e-22)
(1.99965 0.00153032 -5.01972e-22)
(1.99974 0.00164451 0)
(1.99983 0.00172413 0)
(1.99991 0.00177041 0)
(1.99999 0.001785 0)
(2.00007 0.00176983 0)
(2.00013 0.00172703 4.72073e-22)
(2.0002 0.00165894 1.24434e-21)
(2.00026 0.00156795 -1.24532e-21)
(2.00031 0.00145645 6.13046e-22)
(2.00035 0.00132659 -3.07217e-22)
(2.00039 0.00118079 0)
(2.00042 0.00102152 1.50457e-22)
(2.00045 0.000850962 0)
(2.00047 0.000671264 0)
(2.00049 0.0004845 -1.4933e-22)
(2.0005 0.00029281 0)
(2.00051 9.79915e-05 1.47637e-22)
(2.00107 -0.000173987 1.20198e-24)
(2.00107 -0.000521762 0)
(2.00106 -0.000868573 0)
(2.00106 -0.00121401 -1.06009e-22)
(2.00105 -0.00155711 0)
(2.00103 -0.00189698 1.08925e-22)
(2.00102 -0.00223256 -1.10231e-22)
(2.00099 -0.00256245 2.20486e-22)
(2.00097 -0.00288511 0)
(2.00093 -0.00319851 -4.60687e-22)
(2.00089 -0.0035006 2.27428e-22)
(2.00084 -0.00378805 5.6665e-24)
(2.00078 -0.00405816 9.64994e-22)
(2.00071 -0.00430814 -4.95373e-22)
(2.00063 -0.00453423 -5.4507e-24)
(2.00054 -0.0047324 -1.37526e-22)
(2.00044 -0.00489865 2.6491e-21)
(2.00032 -0.00502925 -1.03954e-21)
(2.00019 -0.00511944 -1.78284e-21)
(2.00006 -0.00516471 2.52175e-21)
(1.99991 -0.00516254 2.84932e-22)
(1.99976 -0.00511053 -2.97873e-22)
(1.99961 -0.00500605 -6.37052e-24)
(1.99945 -0.00484834 3.04332e-22)
(1.9993 -0.00463758 0)
(1.99915 -0.00437544 0)
(1.99902 -0.00406494 0)
(1.9989 -0.00371049 0)
(1.9988 -0.00331783 1.68016e-22)
(1.99872 -0.00289377 0)
(1.99866 -0.0024463 -5.11916e-22)
(1.99863 -0.00198414 0)
(1.99862 -0.00151583 3.47094e-22)
(1.99863 -0.00105008 -3.47169e-22)
(1.99867 -0.000595266 3.48499e-22)
(1.99873 -0.000159016 -3.02043e-25)
(1.99881 0.000251761 -6.95615e-22)
(1.9989 0.000631314 3.47292e-22)
(1.99901 0.000974921 -1.72015e-22)
(1.99913 0.00127895 3.43909e-22)
(1.99925 0.00154103 1.70663e-22)
(1.99938 0.00175973 0)
(1.99951 0.00193465 1.67024e-22)
(1.99964 0.00206621 0)
(1.99976 0.00215556 0)
(1.99988 0.0022044 1.6244e-22)
(1.99999 0.00221495 -1.60704e-22)
(2.0001 0.00218968 0)
(2.0002 0.00213131 1.88339e-21)
(2.00029 0.00204283 1.2303e-21)
(2.00037 0.00192718 -2.48492e-21)
(2.00044 0.00178713 -6.10738e-22)
(2.00051 0.00162538 1.36868e-21)
(2.00056 0.00144503 -6.06225e-22)
(2.00061 0.00124888 -1.50439e-22)
(2.00065 0.0010395 0)
(2.00068 0.000819452 2.96624e-22)
(2.0007 0.000591181 -1.48438e-22)
(2.00071 0.000357172 0)
(2.00072 0.000119537 -9.04828e-25)
(2.00145 -0.000202107 1.0451e-22)
(2.00144 -0.000606277 0)
(2.00144 -0.00100945 0)
(2.00143 -0.00141118 1.04846e-22)
(2.00142 -0.00181048 -8.91474e-25)
(2.0014 -0.00220637 1.0659e-22)
(2.00138 -0.00259768 -1.07527e-22)
(2.00135 -0.00298283 -3.31105e-22)
(2.00131 -0.00336009 2.20797e-22)
(2.00127 -0.00372716 -4.55892e-22)
(2.00121 -0.00408164 -1.2265e-22)
(2.00115 -0.00442007 6.97149e-22)
(2.00107 -0.00473862 -1.91979e-21)
(2.00097 -0.005034 -9.86956e-22)
(2.00086 -0.0053021 9.87133e-22)
(2.00074 -0.00553795 -1.28081e-22)
(2.0006 -0.00573687 3.14814e-21)
(2.00044 -0.0058938 -5.16593e-22)
(2.00027 -0.00600293 -5.49888e-22)
(2.00008 -0.00605886 -1.69365e-21)
(1.99988 -0.00605822 2.88251e-22)
(1.99968 -0.00599779 0)
(1.99946 -0.00587414 0)
(1.99925 -0.00568608 -3.12047e-22)
(1.99904 -0.00543364 -6.34258e-24)
(1.99884 -0.00511867 3.18549e-22)
(1.99866 -0.00474477 0)
(1.99849 -0.00431737 3.35262e-22)
(1.99835 -0.00384354 -5.03285e-22)
(1.99824 -0.00333169 0)
(1.99816 -0.00279184 1.70949e-22)
(1.99812 -0.00223493 -6.96014e-22)
(1.99811 -0.00167153 -1.59832e-24)
(1.99813 -0.00111246 7.02807e-22)
(1.99818 -0.000568078 1.65553e-25)
(1.99827 -4.76271e-05 -3.52114e-22)
(1.99838 0.000440544 0)
(1.99851 0.000889525 3.48653e-22)
(1.99866 0.00129382 -2.16387e-24)
(1.99882 0.00164927 -3.46326e-22)
(1.99899 0.00195332 -3.42355e-22)
(1.99917 0.00220457 0)
(1.99935 0.0024029 0)
(1.99952 0.00254914 -1.66338e-22)
(1.99969 0.00264496 0)
(1.99985 0.00269271 -3.2491e-22)
(2.00001 0.00269525 1.60668e-22)
(2.00015 0.00265575 -3.17496e-22)
(2.00028 0.00257763 -1.8845e-21)
(2.0004 0.00246457 -1.2375e-21)
(2.00051 0.00232011 6.22031e-22)
(2.00061 0.00214732 -5.41817e-24)
(2.00069 0.00194981 -9.1044e-22)
(2.00077 0.00173115 3.00505e-22)
(2.00083 0.00149443 0)
(2.00088 0.00124271 0)
(2.00092 0.000978917 -1.01603e-24)
(2.00095 0.00070584 0)
(2.00097 0.00042629 0)
(2.00098 0.000142659 -1.4671e-22)
(2.00188 -0.000230204 0)
(2.00187 -0.000690727 0)
(2.00187 -0.00115024 1.02395e-22)
(2.00186 -0.0016084 -1.04567e-22)
(2.00184 -0.00206416 0)
(2.00182 -0.00251649 -2.10914e-22)
(2.00179 -0.0029642 1.06182e-22)
(2.00176 -0.00340557 1.07445e-22)
(2.00171 -0.00383864 0)
(2.00166 -0.00426092 0)
(2.00159 -0.00466966 -3.44552e-22)
(2.0015 -0.00506124 2.25857e-22)
(2.0014 -0.00543116 9.56491e-22)
(2.00128 -0.00577474 2.88759e-21)
(2.00114 -0.00608791 0)
(2.00098 -0.00636476 -5.0521e-22)
(2.00079 -0.00659986 -2.08765e-21)
(2.00059 -0.00678646 -5.3204e-22)
(2.00036 -0.0069177 -1.10235e-21)
(2.00012 -0.00698701 2.69656e-22)
(1.99985 -0.00698988 -5.83348e-22)
(1.99958 -0.00692211 -7.36706e-24)
(1.9993 -0.00677919 -7.29196e-24)
(1.99901 -0.00655929 3.06719e-22)
(1.99873 -0.00626216 0)
(1.99847 -0.00588974 0)
(1.99822 -0.00544627 0)
(1.998 -0.00493829 1.69214e-22)
(1.99781 -0.0043744 -1.71871e-22)
(1.99767 -0.00376496 0)
(1.99756 -0.00312241 3.46376e-22)
(1.99751 -0.00246031 -3.51298e-22)
(1.99749 -0.00179171 0)
(1.99753 -0.00112991 0)
(1.99761 -0.000487512 5.35892e-22)
(1.99772 0.00012429 -3.56351e-22)
(1.99787 0.000695579 -3.5407e-22)
(1.99805 0.00121815 7.05872e-22)
(1.99825 0.00168577 -3.51791e-22)
(1.99847 0.00209384 0)
(1.9987 0.00243973 5.14397e-22)
(1.99893 0.00272222 -3.42633e-22)
(1.99916 0.00294161 -1.68908e-22)
(1.99939 0.00309936 3.33112e-22)
(1.99962 0.00319788 0)
(1.99983 0.00324028 1.62472e-22)
(2.00003 0.00323025 -3.20911e-22)
(2.00022 0.00317181 3.17394e-22)
(2.00039 0.00306926 -1.23775e-21)
(2.00055 0.00292696 6.35803e-22)
(2.00069 0.00274892 3.06757e-22)
(2.00081 0.00253892 1.51136e-22)
(2.00092 0.00230144 -1.51147e-22)
(2.00102 0.0020403 -1.49701e-22)
(2.0011 0.0017591 2.95322e-22)
(2.00116 0.0014613 -8.1714e-25)
(2.00121 0.00115017 -2.94079e-22)
(2.00125 0.000828828 1.45387e-22)
(2.00128 0.00050035 0)
(2.00129 0.000167406 0)
(2.00237 -0.00025832 0)
(2.00236 -0.000775217 0)
(2.00236 -0.0012912 -2.02933e-22)
(2.00234 -0.00180601 0)
(2.00233 -0.00231865 0)
(2.0023 -0.00282807 1.78619e-24)
(2.00227 -0.00333305 0)
(2.00222 -0.00383184 -1.07282e-22)
(2.00217 -0.00432234 -1.08916e-22)
(2.0021 -0.00480177 1.08993e-22)
(2.00201 -0.00526714 -4.52571e-22)
(2.00191 -0.0057146 4.525e-22)
(2.00178 -0.00613922 0)
(2.00163 -0.00653476 -2.87453e-21)
(2.00146 -0.00689742 -4.62476e-22)
(2.00125 -0.00721976 5.49988e-22)
(2.00102 -0.00749565 -3.06872e-21)
(2.00076 -0.00771641 1.06959e-21)
(2.00047 -0.00787426 -5.37613e-22)
(2.00016 -0.00796087 0)
(1.99982 -0.00797042 -5.75966e-22)
(1.99947 -0.00789732 0)
(1.9991 -0.00773569 -3.08076e-22)
(1.99873 -0.00748285 3.08174e-22)
(1.99837 -0.00713791 -3.23455e-22)
(1.99802 -0.0067029 1.59099e-22)
(1.9977 -0.00618263 0)
(1.99742 -0.0055849 -1.69222e-22)
(1.99718 -0.0049202 5.20569e-22)
(1.99699 -0.00420113 1.76694e-22)
(1.99686 -0.00344312 -3.61879e-22)
(1.99678 -0.00266294 -1.83047e-22)
(1.99677 -0.00187662 3.59213e-22)
(1.99682 -0.00110048 0)
(1.99693 -0.000349708 1.81762e-22)
(1.99708 0.000362155 -1.05662e-24)
(1.99728 0.0010235 -1.79844e-24)
(1.99752 0.00162469 -3.5815e-22)
(1.99778 0.00215879 3.52541e-22)
(1.99807 0.00262082 -5.28641e-22)
(1.99836 0.00300825 1.74193e-22)
(1.99867 0.0033203 0)
(1.99897 0.0035579 1.68883e-22)
(1.99926 0.00372338 -1.66769e-22)
(1.99955 0.00382011 0)
(1.99982 0.00385222 0)
(2.00007 0.0038244 3.20815e-22)
(2.00031 0.00374164 -6.48754e-24)
(2.00053 0.00360932 -1.57797e-23)
(2.00072 0.00343256 1.23177e-21)
(2.0009 0.00321563 3.05801e-22)
(2.00106 0.00296365 1.50357e-22)
(2.00119 0.00268152 1.48747e-22)
(2.00131 0.00237348 -1.23434e-24)
(2.00141 0.00204363 -1.48803e-22)
(2.00149 0.00169581 0)
(2.00155 0.00133359 0)
(2.0016 0.000960375 -2.89318e-22)
(2.00163 0.000579509 0)
(2.00165 0.000193837 0)
(2.00291 -0.000286468 0)
(2.00291 -0.000859826 0)
(2.0029 -0.00143241 6.50057e-25)
(2.00289 -0.00200419 9.98588e-23)
(2.00287 -0.00257417 0)
(2.00284 -0.00314144 1.02873e-22)
(2.0028 -0.00370477 1.03857e-22)
(2.00275 -0.00426244 1.55629e-24)
(2.00268 -0.00481225 1.75403e-24)
(2.0026 -0.00535131 -1.0913e-22)
(2.0025 -0.00587621 1.09109e-22)
(2.00237 -0.00638287 1.1155e-22)
(2.00222 -0.00686637 -2.28357e-22)
(2.00204 -0.00731879 -1.8727e-21)
(2.00182 -0.0077359 -4.94538e-22)
(2.00158 -0.00810967 1.98372e-21)
(2.00129 -0.00843214 1.54716e-21)
(2.00097 -0.00869307 -1.05368e-21)
(2.00061 -0.0088835 1.08499e-21)
(2.00022 -0.0089929 1.67958e-21)
(1.99979 -0.00901376 2.83562e-22)
(1.99935 -0.00893858 -4.59641e-24)
(1.99888 -0.00875981 -3.0967e-22)
(1.99842 -0.00847344 6.28033e-22)
(1.99795 -0.00807766 -3.18382e-22)
(1.99751 -0.00757433 1.6447e-22)
(1.9971 -0.00696885 0)
(1.99674 -0.00627046 1.7404e-22)
(1.99643 -0.00549184 1.82712e-22)
(1.99619 -0.00464837 -1.74397e-22)
(1.99602 -0.00375923 1.78516e-22)
(1.99594 -0.00284505 1.80638e-22)
(1.99593 -0.00192558 1.81966e-22)
(1.996 -0.00102087 -3.672e-22)
(1.99614 -0.0001491 0)
(1.99635 0.000673403 -3.65614e-22)
(1.99661 0.001433 2.25705e-24)
(1.99691 0.00211862 3.6298e-22)
(1.99725 0.00272272 -3.56282e-22)
(1.99762 0.00324004 2.2311e-24)
(1.998 0.00366841 2.06093e-24)
(1.99838 0.00400776 -5.15771e-22)
(1.99876 0.00425997 3.42544e-22)
(1.99913 0.00442855 -1.67831e-22)
(1.99949 0.00451811 -1.65155e-22)
(1.99983 0.00453407 -6.45282e-22)
(2.00014 0.00448239 1.91666e-21)
(2.00043 0.00436918 5.94195e-24)
(2.0007 0.00420096 2.50561e-21)
(2.00094 0.00398371 9.1706e-22)
(2.00116 0.00372228 -1.54372e-22)
(2.00135 0.00342299 -3.00972e-22)
(2.00151 0.00309117 -1.4748e-22)
(2.00165 0.00273152 1.47497e-22)
(2.00177 0.00234863 -1.46246e-22)
(2.00187 0.00194663 -1.44155e-22)
(2.00195 0.00152943 1.4418e-22)
(2.00201 0.00110065 9.62782e-25)
(2.00204 0.000663832 1.42985e-22)
(2.00206 0.000221974 0)
(2.00351 -0.000314629 0)
(2.00351 -0.000944483 0)
(2.0035 -0.00157382 0)
(2.00349 -0.00220282 -9.84206e-23)
(2.00346 -0.00283067 9.83918e-23)
(2.00343 -0.00345661 -1.00398e-22)
(2.00339 -0.00407947 1.0037e-22)
(2.00333 -0.00469763 0)
(2.00326 -0.00530887 0)
(2.00316 -0.00591027 1.07055e-22)
(2.00305 -0.00649823 -2.1636e-22)
(2.0029 -0.00706808 -2.18132e-24)
(2.00272 -0.00761509 4.6262e-22)
(2.00251 -0.00813063 1.41335e-21)
(2.00225 -0.0086081 9.67881e-22)
(2.00195 -0.00904032 -9.69412e-22)
(2.00161 -0.00941675 -1.0176e-21)
(2.00121 -0.00972575 6.4416e-22)
(2.00078 -0.00995674 -5.37194e-22)
(2.00029 -0.0100965 -8.41573e-24)
(1.99977 -0.0101352 -1.16882e-21)
(1.99922 -0.0100625 2.36291e-21)
(1.99864 -0.00986948 -3.0196e-22)
(1.99805 -0.00954985 0)
(1.99747 -0.00910039 0)
(1.99692 -0.00852245 0)
(1.9964 -0.00782203 0)
(1.99594 -0.00700982 -1.74059e-22)
(1.99555 -0.00610141 1.86906e-22)
(1.99526 -0.00511543 3.34973e-24)
(1.99505 -0.00407576 0)
(1.99495 -0.00300794 1.84787e-22)
(1.99495 -0.00193642 -1.87773e-22)
(1.99504 -0.000885676 1.89548e-22)
(1.99523 0.000122277 3.7391e-22)
(1.9955 0.001068 -5.62004e-22)
(1.99584 0.0019355 -3.68762e-22)
(1.99623 0.00271221 1.83599e-22)
(1.99666 0.00339001 0)
(1.99712 0.00396374 1.78054e-22)
(1.9976 0.00443183 -1.67119e-24)
(1.99808 0.0047953 -1.29174e-24)
(1.99855 0.00505747 -1.71393e-22)
(1.99901 0.00522336 -3.33927e-22)
(1.99944 0.00529921 4.98353e-22)
(1.99986 0.00529199 -1.28885e-21)
(2.00024 0.00520933 1.28842e-21)
(2.00059 0.0050587 -2.51882e-21)
(2.00091 0.00484757 2.776e-21)
(2.0012 0.00458298 -9.19072e-22)
(2.00146 0.00427082 0)
(2.00169 0.00391838 1.47631e-22)
(2.00188 0.00353138 -1.47646e-22)
(2.00205 0.0031151 0)
(2.00219 0.00267452 0)
(2.00231 0.00221405 0)
(2.0024 0.0017379 0)
(2.00247 0.00124975 0)
(2.00251 0.000753384 0)
(2.00253 0.000251827 0)
(2.00417 -0.000342741 0)
(2.00417 -0.00102902 0)
(2.00416 -0.00171511 0)
(2.00414 -0.00240157 0)
(2.00412 -0.00308769 0)
(2.00409 -0.00377307 9.80361e-23)
(2.00404 -0.00445664 -1.97346e-22)
(2.00398 -0.00513697 9.93205e-23)
(2.0039 -0.00581195 -1.02682e-22)
(2.00379 -0.00647864 -2.07259e-24)
(2.00366 -0.00713339 1.04707e-22)
(2.00349 -0.00777117 0)
(2.00329 -0.00838697 -2.25947e-22)
(2.00304 -0.00897228 -7.01296e-22)
(2.00274 -0.0095181 4.6924e-21)
(2.00239 -0.0100171 -1.9083e-21)
(2.00198 -0.0104563 9.9931e-22)
(2.00151 -0.0108233 -1.39485e-24)
(2.00098 -0.011105 6.7001e-22)
(2.0004 -0.0112853 -1.11612e-21)
(1.99976 -0.0113502 -2.29077e-21)
(1.99908 -0.0112871 8.25304e-25)
(1.99837 -0.0110848 0)
(1.99765 -0.0107334 -3.23783e-22)
(1.99693 -0.0102279 -1.00627e-23)
(1.99623 -0.00956859 3.34277e-22)
(1.99559 -0.00876184 0)
(1.99502 -0.00782018 0)
(1.99453 -0.00676246 -1.773e-22)
(1.99416 -0.00561166 -3.67378e-22)
(1.99391 -0.00439746 3.78213e-22)
(1.9938 -0.00315176 -1.90539e-22)
(1.9938 -0.00190492 0)
(1.99394 -0.000686866 -5.72716e-22)
(1.99419 0.000475687 1.8939e-22)
(1.99453 0.00155947 3.74957e-22)
(1.99496 0.00254589 -3.78608e-22)
(1.99546 0.00342106 1.84957e-22)
(1.996 0.0041763 1.7983e-22)
(1.99658 0.00480691 -5.47343e-22)
(1.99717 0.00531251 -1.82613e-24)
(1.99776 0.00569568 -1.38385e-24)
(1.99833 0.00596168 1.71327e-22)
(1.99889 0.00611757 -5.61626e-25)
(1.99942 0.00617166 0)
(1.99992 0.00613291 1.10429e-23)
(2.00038 0.00601081 1.28529e-21)
(2.0008 0.00581445 -2.49661e-21)
(2.00118 0.00555224 1.37031e-22)
(2.00152 0.00523283 -1.5258e-22)
(2.00182 0.00486309 0)
(2.00208 0.00445107 1.46079e-22)
(2.00231 0.00400303 -1.46097e-22)
(2.00251 0.00352478 0)
(2.00267 0.00302165 0)
(2.00281 0.00249823 0)
(2.00291 0.00195899 1.3976e-22)
(2.00299 0.00140768 -1.39787e-22)
(2.00304 0.000848157 0)
(2.00307 0.000283391 0)
(2.00489 -0.0003707 0)
(2.00488 -0.00111307 0)
(2.00487 -0.00185574 0)
(2.00486 -0.00259964 0)
(2.00484 -0.00334431 0)
(2.0048 -0.00408978 -9.54428e-23)
(2.00475 -0.00483515 1.92147e-22)
(2.00469 -0.0055793 1.57149e-24)
(2.0046 -0.00632035 1.82219e-24)
(2.00449 -0.00705541 1.04224e-22)
(2.00434 -0.00778098 -3.08695e-22)
(2.00415 -0.00849188 -2.66573e-24)
(2.00392 -0.00918264 1.07091e-22)
(2.00364 -0.00984491 -2.27881e-22)
(2.0033 -0.0104685 -1.38008e-21)
(2.00289 -0.011044 -1.41961e-21)
(2.00242 -0.0115572 -2.52579e-23)
(2.00187 -0.0119943 1.06243e-22)
(2.00124 -0.0123391 3.87059e-22)
(2.00054 -0.0125726 -1.66535e-21)
(1.99978 -0.0126758 -1.71338e-21)
(1.99896 -0.0126328 -5.94594e-22)
(1.99809 -0.0124285 0)
(1.9972 -0.0120488 -3.2697e-22)
(1.99631 -0.0114858 -1.13066e-23)
(1.99545 -0.010738 3.38792e-22)
(1.99465 -0.00981182 1.79364e-22)
(1.99394 -0.00872178 0)
(1.99335 -0.00749092 3.78237e-22)
(1.99289 -0.00614753 -5.7674e-22)
(1.99259 -0.00472901 1.91784e-22)
(1.99245 -0.00327532 -3.91439e-22)
(1.99248 -0.00182435 5.85428e-22)
(1.99266 -0.000413069 -4.00643e-25)
(1.99298 0.000926144 -1.98752e-22)
(1.99343 0.00216545 1.92349e-22)
(1.99398 0.0032834 0)
(1.9946 0.00426476 0)
(1.99528 0.00510084 -1.85084e-22)
(1.99599 0.00578784 3.67703e-22)
(1.99671 0.00632721 1.79055e-22)
(1.99743 0.00672381 -1.45802e-24)
(1.99813 0.00698554 -3.46379e-22)
(1.9988 0.00712211 -5.00385e-22)
(1.99943 0.00714454 1.99277e-21)
(2.00002 0.00706422 -1.2969e-21)
(2.00056 0.00689266 6.28488e-22)
(2.00105 0.0066407 1.86725e-21)
(2.0015 0.00631823 -2.14838e-21)
(2.00189 0.0059357 -3.02677e-22)
(2.00224 0.00550066 0)
(2.00255 0.00502208 -1.44301e-22)
(2.00281 0.00450667 1.44328e-22)
(2.00303 0.0039608 0)
(2.00322 0.00339003 1.39499e-22)
(2.00337 0.00279912 -1.39523e-22)
(2.00349 0.00219267 0)
(2.00358 0.00157435 0)
(2.00364 0.00094805 0)
(2.00367 0.000316644 0)
(2.00566 -0.000398363 0)
(2.00565 -0.00119622 0)
(2.00565 -0.001995 0)
(2.00563 -0.00279605 0)
(2.00561 -0.00359929 0)
(2.00558 -0.00440521 0)
(2.00553 -0.00521322 -9.38948e-23)
(2.00546 -0.00602266 -1.55374e-24)
(2.00537 -0.00683195 -9.901e-23)
(2.00525 -0.00763854 9.50804e-23)
(2.0051 -0.0084391 -1.03993e-22)
(2.00489 -0.00922851 2.03165e-22)
(2.00464 -0.010001 -2.14603e-22)
(2.00433 -0.0107484 -6.80682e-24)
(2.00394 -0.0114596 2.01904e-21)
(2.00348 -0.0121232 -4.74387e-22)
(2.00293 -0.0127241 -9.8405e-22)
(2.00229 -0.0132463 -1.48612e-22)
(2.00157 -0.0136702 -2.15741e-23)
(2.00074 -0.013973 1.62039e-21)
(1.99983 -0.0141306 2.23553e-23)
(1.99884 -0.014122 -3.03773e-22)
(1.99779 -0.0139269 4.59741e-22)
(1.99671 -0.0135253 1.62682e-22)
(1.99562 -0.0129049 0)
(1.99456 -0.0120613 1.76705e-22)
(1.99357 -0.0110006 -1.79371e-22)
(1.99269 -0.00973943 3.783e-22)
(1.99196 -0.00830586 -5.63305e-22)
(1.9914 -0.00673531 5.87456e-22)
(1.99104 -0.00507499 -1.97362e-22)
(1.99089 -0.00337568 4.03189e-22)
(1.99094 -0.00168499 -2.04124e-22)
(1.99118 -4.86886e-05 6.09118e-22)
(1.9916 0.00149358 -2.59527e-24)
(1.99217 0.00290866 -6.02345e-22)
(1.99286 0.00417221 -3.90465e-22)
(1.99364 0.00526778 3.90107e-22)
(1.99448 0.00618716 0)
(1.99535 0.00692841 1.84779e-22)
(1.99623 0.00749561 -1.83063e-22)
(1.9971 0.00789686 -1.80068e-22)
(1.99794 0.0081436 -1.90003e-24)
(1.99873 0.008249 0)
(1.99948 0.00822765 1.32242e-21)
(2.00017 0.00809375 -2.58116e-21)
(2.0008 0.00786076 -9.47355e-22)
(2.00137 0.0075416 -3.12409e-22)
(2.00188 0.0071486 1.49837e-22)
(2.00234 0.00669356 -1.03403e-21)
(2.00273 0.00618463 4.38693e-22)
(2.00308 0.00563192 -1.44547e-22)
(2.00338 0.00504246 0)
(2.00363 0.00442306 0)
(2.00384 0.00377942 0)
(2.004 0.00311634 -1.3599e-22)
(2.00414 0.00243852 9.30498e-25)
(2.00423 0.00174947 1.35137e-22)
(2.0043 0.0010529 0)
(2.00433 0.000351528 0)
(2.00648 -0.000425498 -8.6201e-23)
(2.00648 -0.00127785 8.64522e-23)
(2.00647 -0.0021319 0)
(2.00646 -0.00298937 -8.77454e-23)
(2.00645 -0.00385077 8.77096e-23)
(2.00642 -0.00471713 0)
(2.00637 -0.00558833 9.0809e-23)
(2.00631 -0.00646422 1.51919e-24)
(2.00622 -0.00734371 -1.86299e-22)
(2.00609 -0.00822476 -9.814e-23)
(2.00593 -0.00910446 9.36643e-23)
(2.00572 -0.00997797 9.83848e-23)
(2.00544 -0.0108395 0)
(2.0051 -0.0116809 0)
(2.00468 -0.012491 -2.33181e-22)
(2.00416 -0.0132558 -6.86292e-22)
(2.00354 -0.0139606 9.4113e-22)
(2.00281 -0.0145858 -7.50481e-22)
(2.00197 -0.0151086 -2.32504e-23)
(2.00101 -0.0155018 1.06716e-21)
(1.99994 -0.0157347 3.98249e-21)
(1.99876 -0.0157806 -6.07998e-22)
(1.9975 -0.0156108 4.46358e-22)
(1.99618 -0.0151979 1.56673e-22)
(1.99485 -0.0145229 0)
(1.99355 -0.0135768 -1.76678e-22)
(1.99233 -0.0123642 0)
(1.99124 -0.0109041 1.94519e-22)
(1.99034 -0.00923104 4.92175e-24)
(1.98966 -0.00738962 -8.08782e-22)
(1.98923 -0.00544025 1.25091e-21)
(1.98906 -0.00344787 3.05539e-24)
(1.98915 -0.00147308 -4.17296e-22)
(1.98948 0.000427157 6.93843e-24)
(1.99002 0.00220406 -2.01622e-22)
(1.99075 0.00381836 6.14026e-22)
(1.99162 0.00524271 0)
(1.99258 0.00646012 0)
(1.99362 0.00746373 -3.8247e-22)
(1.99468 0.00825457 9.07519e-24)
(1.99574 0.0088405 7.40926e-22)
(1.99678 0.00923429 -3.03031e-24)
(1.99778 0.00945202 -1.76721e-24)
(1.99872 0.00951131 1.35827e-21)
(1.99959 0.00943111 -7.91916e-21)
(2.00039 0.00922874 3.21478e-21)
(2.00112 0.00891978 6.23312e-22)
(2.00177 0.00852079 0)
(2.00235 0.0080458 0)
(2.00286 0.00750758 5.89674e-22)
(2.0033 0.00691549 1.42388e-22)
(2.00369 0.0062805 -1.42401e-22)
(2.00402 0.00560993 0)
(2.0043 0.00491086 -1.36051e-22)
(2.00453 0.00418904 1.36079e-22)
(2.00471 0.00344925 0)
(2.00486 0.00269598 0)
(2.00496 0.00193255 1.31709e-22)
(2.00503 0.00116238 -1.31755e-22)
(2.00507 0.000387939 0)
(2.00736 -0.000451905 0)
(2.00736 -0.00135726 0)
(2.00736 -0.00226518 8.39872e-23)
(2.00735 -0.00317791 -8.39501e-23)
(2.00734 -0.00409661 0)
(2.00732 -0.00502284 0)
(2.00728 -0.00595726 -8.74725e-23)
(2.00722 -0.00690027 -1.46429e-24)
(2.00714 -0.00785149 1.79456e-22)
(2.00701 -0.00880959 -9.05568e-23)
(2.00685 -0.00977226 -1.89772e-22)
(2.00663 -0.0107353 8.87823e-23)